
     Program PWSCF v.6.7MaX starts on 26May2024 at 13:56: 0 

     This program is part of the open-source Quantum ESPRESSO suite
     for quantum simulation of materials; please cite
         "P. Giannozzi et al., J. Phys.:Condens. Matter 21 395502 (2009);
         "P. Giannozzi et al., J. Phys.:Condens. Matter 29 465901 (2017);
          URL http://www.quantum-espresso.org", 
     in publications or presentations arising from this work. More details at
     http://www.quantum-espresso.org/quote

     Parallel version (MPI), running on     1 processors

     MPI processes distributed on     1 nodes
     Waiting for input...
     Reading input from standard input
Warning: card &IONS ignored
Warning: card / ignored
Warning: card &CELL ignored
Warning: card CELL_DOFREE='IBRAV' ignored
Warning: card / ignored

     Current dimensions of program PWSCF are:
     Max number of different atomic species (ntypx) = 10
     Max number of k-points (npk) =  40000
     Max angular momentum in pseudopotentials (lmaxx) =  3

     Atomic positions and unit cell read from directory:
     ./out/v2c.save/
     Atomic positions from file used, from input discarded

     file C.pbe-n-kjpaw_psl.1.0.0.UPF: wavefunction(s)  2S 2P renormalized

     Subspace diagonalization in iterative solution of the eigenvalue problem:
     a serial algorithm will be used

     Message from routine setup:
     using ibrav=0 with symmetry is DISCOURAGED, use correct ibrav instead

     G-vector sticks info
     --------------------
     sticks:   dense  smooth     PW     G-vecs:    dense   smooth      PW
     Sum         745     367    121                25371     8971    1533



     bravais-lattice index     =            0
     lattice parameter (alat)  =       5.4472  a.u.
     unit-cell volume          =     218.5677 (a.u.)^3
     number of atoms/cell      =            3
     number of atomic types    =            2
     number of electrons       =        30.00
     number of Kohn-Sham states=           19
     kinetic-energy cutoff     =      45.0000  Ry
     charge density cutoff     =     360.0000  Ry
     Exchange-correlation=  SLA  PW   PBX  PBC
                           (   1   4   3   4   0   0   0)

     celldm(1)=   5.447159  celldm(2)=   0.000000  celldm(3)=   0.000000
     celldm(4)=   0.000000  celldm(5)=   0.000000  celldm(6)=   0.000000

     crystal axes: (cart. coord. in units of alat)
               a(1) = (  -0.500000  -0.866025   0.000000 )  
               a(2) = (  -0.500000   0.866025   0.000000 )  
               a(3) = (   0.000000   0.000000  -1.561512 )  

     reciprocal axes: (cart. coord. in units 2 pi/alat)
               b(1) = ( -1.000000 -0.577350 -0.000000 )  
               b(2) = ( -1.000000  0.577350  0.000000 )  
               b(3) = ( -0.000000  0.000000 -0.640405 )  


     PseudoPot. # 1 for C  read from file:
     ./C.pbe-n-kjpaw_psl.1.0.0.UPF
     MD5 check sum: 5d2aebdfa2cae82b50a7e79e9516da0f
     Pseudo is Projector augmented-wave + core cor, Zval =  4.0
     Generated using "atomic" code by A. Dal Corso  v.5.1
     Shape of augmentation charge: PSQ
     Using radial grid of 1073 points,  4 beta functions with: 
                l(1) =   0
                l(2) =   0
                l(3) =   1
                l(4) =   1
     Q(r) pseudized with 0 coefficients 


     PseudoPot. # 2 for V  read from file:
     ./v_pbe_v1.4.uspp.F.UPF
     MD5 check sum: 22b79981416ebb76fdaf5b1b8640f6fb
     Pseudo is Ultrasoft + core correction, Zval = 13.0
     Generated by new atomic code, or converted to UPF format
     Using radial grid of  853 points,  6 beta functions with: 
                l(1) =   0
                l(2) =   0
                l(3) =   1
                l(4) =   1
                l(5) =   2
                l(6) =   2
     Q(r) pseudized with  8 coefficients,  rinner =    1.100   1.100   1.100
                                                       1.100   1.100

     atomic species   valence    mass     pseudopotential
        C              4.00    12.01070     C ( 1.00)
        V             13.00    50.94150     V ( 1.00)

     12 Sym. Ops., with inversion, found


                                    s                        frac. trans.

      isym =  1     identity                                     

 cryst.   s( 1) = (     1          0          0      )
                  (     0          1          0      )
                  (     0          0          1      )

 cart.    s( 1) = (  1.0000000  0.0000000  0.0000000 )
                  (  0.0000000  1.0000000  0.0000000 )
                  (  0.0000000  0.0000000  1.0000000 )


      isym =  2     180 deg rotation - cart. axis [1,0,0]        

 cryst.   s( 2) = (     0          1          0      )
                  (     1          0          0      )
                  (     0          0         -1      )

 cart.    s( 2) = (  1.0000000  0.0000000  0.0000000 )
                  (  0.0000000 -1.0000000  0.0000000 )
                  (  0.0000000  0.0000000 -1.0000000 )


      isym =  3     120 deg rotation - cryst. axis [0,0,1]       

 cryst.   s( 3) = (    -1         -1          0      )
                  (     1          0          0      )
                  (     0          0          1      )

 cart.    s( 3) = ( -0.5000000 -0.8660254  0.0000000 )
                  (  0.8660254 -0.5000000  0.0000000 )
                  (  0.0000000  0.0000000  1.0000000 )


      isym =  4     120 deg rotation - cryst. axis [0,0,-1]      

 cryst.   s( 4) = (     0          1          0      )
                  (    -1         -1          0      )
                  (     0          0          1      )

 cart.    s( 4) = ( -0.5000000  0.8660254  0.0000000 )
                  ( -0.8660254 -0.5000000  0.0000000 )
                  (  0.0000000  0.0000000  1.0000000 )


      isym =  5     180 deg rotation - cryst. axis [0,1,0]       

 cryst.   s( 5) = (    -1         -1          0      )
                  (     0          1          0      )
                  (     0          0         -1      )

 cart.    s( 5) = ( -0.5000000 -0.8660254  0.0000000 )
                  ( -0.8660254  0.5000000  0.0000000 )
                  (  0.0000000  0.0000000 -1.0000000 )


      isym =  6     180 deg rotation - cryst. axis [1,1,0]       

 cryst.   s( 6) = (     1          0          0      )
                  (    -1         -1          0      )
                  (     0          0         -1      )

 cart.    s( 6) = ( -0.5000000  0.8660254  0.0000000 )
                  (  0.8660254  0.5000000  0.0000000 )
                  (  0.0000000  0.0000000 -1.0000000 )


      isym =  7     inversion                                    

 cryst.   s( 7) = (    -1          0          0      )
                  (     0         -1          0      )
                  (     0          0         -1      )

 cart.    s( 7) = ( -1.0000000  0.0000000  0.0000000 )
                  (  0.0000000 -1.0000000  0.0000000 )
                  (  0.0000000  0.0000000 -1.0000000 )


      isym =  8     inv. 180 deg rotation - cart. axis [1,0,0]   

 cryst.   s( 8) = (     0         -1          0      )
                  (    -1          0          0      )
                  (     0          0          1      )

 cart.    s( 8) = ( -1.0000000  0.0000000  0.0000000 )
                  (  0.0000000  1.0000000  0.0000000 )
                  (  0.0000000  0.0000000  1.0000000 )


      isym =  9     inv. 120 deg rotation - cryst. axis [0,0,1]  

 cryst.   s( 9) = (     1          1          0      )
                  (    -1          0          0      )
                  (     0          0         -1      )

 cart.    s( 9) = (  0.5000000  0.8660254  0.0000000 )
                  ( -0.8660254  0.5000000  0.0000000 )
                  (  0.0000000  0.0000000 -1.0000000 )


      isym = 10     inv. 120 deg rotation - cryst. axis [0,0,-1] 

 cryst.   s(10) = (     0         -1          0      )
                  (     1          1          0      )
                  (     0          0         -1      )

 cart.    s(10) = (  0.5000000 -0.8660254  0.0000000 )
                  (  0.8660254  0.5000000  0.0000000 )
                  (  0.0000000  0.0000000 -1.0000000 )


      isym = 11     inv. 180 deg rotation - cryst. axis [0,1,0]  

 cryst.   s(11) = (     1          1          0      )
                  (     0         -1          0      )
                  (     0          0          1      )

 cart.    s(11) = (  0.5000000  0.8660254  0.0000000 )
                  (  0.8660254 -0.5000000  0.0000000 )
                  (  0.0000000  0.0000000  1.0000000 )


      isym = 12     inv. 180 deg rotation - cryst. axis [1,1,0]  

 cryst.   s(12) = (    -1          0          0      )
                  (     1          1          0      )
                  (     0          0          1      )

 cart.    s(12) = (  0.5000000 -0.8660254  0.0000000 )
                  ( -0.8660254 -0.5000000  0.0000000 )
                  (  0.0000000  0.0000000  1.0000000 )


   Cartesian axes

     site n.     atom                  positions (alat units)
         1           V   tau(   1) = (  -0.5000000   0.2886751  -0.3984485  )
         2           V   tau(   2) = (  -0.5000000  -0.2886751  -1.1630630  )
         3           C   tau(   3) = (   0.0000000   0.0000000   0.0000000  )

   Crystallographic axes

     site n.     atom                  positions (cryst. coord.)
         1           V   tau(   1) = (  0.3333333  0.6666667  0.2551685  )
         2           V   tau(   2) = (  0.6666667  0.3333333  0.7448315  )
         3           C   tau(   3) = ( -0.0000000  0.0000000  0.0000000  )

     number of k points=   126 (tetrahedron method)
                       cart. coord. in units 2pi/alat
        k(    1) = (  -0.0000000   0.0000000   0.0000000), wk =   0.0016906
        k(    2) = (  -0.0000000   0.0000000  -0.0914864), wk =   0.0033812
        k(    3) = (  -0.0000000   0.0000000  -0.1829729), wk =   0.0033812
        k(    4) = (  -0.0000000   0.0000000  -0.2744593), wk =   0.0033812
        k(    5) = (  -0.0769231   0.0444116   0.0000000), wk =   0.0101437
        k(    6) = (  -0.0769231   0.0444116  -0.0914864), wk =   0.0101437
        k(    7) = (  -0.0769231   0.0444116  -0.1829729), wk =   0.0101437
        k(    8) = (  -0.0769231   0.0444116  -0.2744593), wk =   0.0101437
        k(    9) = (  -0.1538462   0.0888231   0.0000000), wk =   0.0101437
        k(   10) = (  -0.1538462   0.0888231  -0.0914864), wk =   0.0101437
        k(   11) = (  -0.1538462   0.0888231  -0.1829729), wk =   0.0101437
        k(   12) = (  -0.1538462   0.0888231  -0.2744593), wk =   0.0101437
        k(   13) = (  -0.2307692   0.1332347   0.0000000), wk =   0.0101437
        k(   14) = (  -0.2307692   0.1332347  -0.0914864), wk =   0.0101437
        k(   15) = (  -0.2307692   0.1332347  -0.1829729), wk =   0.0101437
        k(   16) = (  -0.2307692   0.1332347  -0.2744593), wk =   0.0101437
        k(   17) = (  -0.3076923   0.1776462   0.0000000), wk =   0.0101437
        k(   18) = (  -0.3076923   0.1776462  -0.0914864), wk =   0.0101437
        k(   19) = (  -0.3076923   0.1776462  -0.1829729), wk =   0.0101437
        k(   20) = (  -0.3076923   0.1776462  -0.2744593), wk =   0.0101437
        k(   21) = (  -0.3846154   0.2220578   0.0000000), wk =   0.0101437
        k(   22) = (  -0.3846154   0.2220578  -0.0914864), wk =   0.0101437
        k(   23) = (  -0.3846154   0.2220578  -0.1829729), wk =   0.0101437
        k(   24) = (  -0.3846154   0.2220578  -0.2744593), wk =   0.0101437
        k(   25) = (  -0.4615385   0.2664694   0.0000000), wk =   0.0101437
        k(   26) = (  -0.4615385   0.2664694  -0.0914864), wk =   0.0101437
        k(   27) = (  -0.4615385   0.2664694  -0.1829729), wk =   0.0101437
        k(   28) = (  -0.4615385   0.2664694  -0.2744593), wk =   0.0101437
        k(   29) = (  -0.1538462   0.0000000   0.0000000), wk =   0.0101437
        k(   30) = (  -0.1538462   0.0000000  -0.0914864), wk =   0.0202874
        k(   31) = (  -0.1538462   0.0000000  -0.1829729), wk =   0.0202874
        k(   32) = (  -0.1538462   0.0000000  -0.2744593), wk =   0.0202874
        k(   33) = (  -0.2307692   0.0444116   0.0000000), wk =   0.0202874
        k(   34) = (  -0.2307692   0.0444116  -0.0914864), wk =   0.0202874
        k(   35) = (  -0.2307692   0.0444116  -0.1829729), wk =   0.0202874
        k(   36) = (  -0.2307692   0.0444116  -0.2744593), wk =   0.0202874
        k(   37) = (  -0.3076923   0.0888231   0.0000000), wk =   0.0202874
        k(   38) = (  -0.3076923   0.0888231  -0.0914864), wk =   0.0202874
        k(   39) = (  -0.3076923   0.0888231  -0.1829729), wk =   0.0202874
        k(   40) = (  -0.3076923   0.0888231  -0.2744593), wk =   0.0202874
        k(   41) = (  -0.3846154   0.1332347   0.0000000), wk =   0.0202874
        k(   42) = (  -0.3846154   0.1332347  -0.0914864), wk =   0.0202874
        k(   43) = (  -0.3846154   0.1332347  -0.1829729), wk =   0.0202874
        k(   44) = (  -0.3846154   0.1332347  -0.2744593), wk =   0.0202874
        k(   45) = (  -0.4615385   0.1776462   0.0000000), wk =   0.0202874
        k(   46) = (  -0.4615385   0.1776462  -0.0914864), wk =   0.0202874
        k(   47) = (  -0.4615385   0.1776462  -0.1829729), wk =   0.0202874
        k(   48) = (  -0.4615385   0.1776462  -0.2744593), wk =   0.0202874
        k(   49) = (  -0.5384615   0.2220578   0.0000000), wk =   0.0101437
        k(   50) = (  -0.5384615   0.2220578  -0.0914864), wk =   0.0202874
        k(   51) = (  -0.5384615   0.2220578  -0.1829729), wk =   0.0202874
        k(   52) = (  -0.5384615   0.2220578  -0.2744593), wk =   0.0202874
        k(   53) = (  -0.3076923   0.0000000   0.0000000), wk =   0.0101437
        k(   54) = (  -0.3076923   0.0000000  -0.0914864), wk =   0.0202874
        k(   55) = (  -0.3076923   0.0000000  -0.1829729), wk =   0.0202874
        k(   56) = (  -0.3076923   0.0000000  -0.2744593), wk =   0.0202874
        k(   57) = (  -0.3846154   0.0444116   0.0000000), wk =   0.0202874
        k(   58) = (  -0.3846154   0.0444116  -0.0914864), wk =   0.0202874
        k(   59) = (  -0.3846154   0.0444116  -0.1829729), wk =   0.0202874
        k(   60) = (  -0.3846154   0.0444116  -0.2744593), wk =   0.0202874
        k(   61) = (  -0.4615385   0.0888231   0.0000000), wk =   0.0202874
        k(   62) = (  -0.4615385   0.0888231  -0.0914864), wk =   0.0202874
        k(   63) = (  -0.4615385   0.0888231  -0.1829729), wk =   0.0202874
        k(   64) = (  -0.4615385   0.0888231  -0.2744593), wk =   0.0202874
        k(   65) = (  -0.5384615   0.1332347   0.0000000), wk =   0.0202874
        k(   66) = (  -0.5384615   0.1332347  -0.0914864), wk =   0.0202874
        k(   67) = (  -0.5384615   0.1332347  -0.1829729), wk =   0.0202874
        k(   68) = (  -0.5384615   0.1332347  -0.2744593), wk =   0.0202874
        k(   69) = (  -0.4615385   0.0000000   0.0000000), wk =   0.0101437
        k(   70) = (  -0.4615385   0.0000000  -0.0914864), wk =   0.0202874
        k(   71) = (  -0.4615385   0.0000000  -0.1829729), wk =   0.0202874
        k(   72) = (  -0.4615385   0.0000000  -0.2744593), wk =   0.0202874
        k(   73) = (  -0.5384615   0.0444116   0.0000000), wk =   0.0202874
        k(   74) = (  -0.5384615   0.0444116  -0.0914864), wk =   0.0202874
        k(   75) = (  -0.5384615   0.0444116  -0.1829729), wk =   0.0202874
        k(   76) = (  -0.5384615   0.0444116  -0.2744593), wk =   0.0202874
        k(   77) = (  -0.6153846   0.0888231   0.0000000), wk =   0.0101437
        k(   78) = (  -0.6153846   0.0888231  -0.0914864), wk =   0.0202874
        k(   79) = (  -0.6153846   0.0888231  -0.1829729), wk =   0.0202874
        k(   80) = (  -0.6153846   0.0888231  -0.2744593), wk =   0.0202874
        k(   81) = (  -0.6153846   0.0000000   0.0000000), wk =   0.0101437
        k(   82) = (  -0.6153846   0.0000000  -0.0914864), wk =   0.0202874
        k(   83) = (  -0.6153846   0.0000000  -0.1829729), wk =   0.0202874
        k(   84) = (  -0.6153846   0.0000000  -0.2744593), wk =   0.0202874
        k(   85) = (   0.0769231   0.0444116   0.0914864), wk =   0.0101437
        k(   86) = (   0.0769231   0.0444116   0.1829729), wk =   0.0101437
        k(   87) = (   0.0769231   0.0444116   0.2744593), wk =   0.0101437
        k(   88) = (   0.1538462   0.0888231   0.0914864), wk =   0.0101437
        k(   89) = (   0.1538462   0.0888231   0.1829729), wk =   0.0101437
        k(   90) = (   0.1538462   0.0888231   0.2744593), wk =   0.0101437
        k(   91) = (   0.2307692   0.1332347   0.0914864), wk =   0.0101437
        k(   92) = (   0.2307692   0.1332347   0.1829729), wk =   0.0101437
        k(   93) = (   0.2307692   0.1332347   0.2744593), wk =   0.0101437
        k(   94) = (   0.3076923   0.1776462   0.0914864), wk =   0.0101437
        k(   95) = (   0.3076923   0.1776462   0.1829729), wk =   0.0101437
        k(   96) = (   0.3076923   0.1776462   0.2744593), wk =   0.0101437
        k(   97) = (   0.3846154   0.2220578   0.0914864), wk =   0.0101437
        k(   98) = (   0.3846154   0.2220578   0.1829729), wk =   0.0101437
        k(   99) = (   0.3846154   0.2220578   0.2744593), wk =   0.0101437
        k(  100) = (   0.4615385   0.2664694   0.0914864), wk =   0.0101437
        k(  101) = (   0.4615385   0.2664694   0.1829729), wk =   0.0101437
        k(  102) = (   0.4615385   0.2664694   0.2744593), wk =   0.0101437
        k(  103) = (   0.2307692   0.0444116   0.0914864), wk =   0.0202874
        k(  104) = (   0.2307692   0.0444116   0.1829729), wk =   0.0202874
        k(  105) = (   0.2307692   0.0444116   0.2744593), wk =   0.0202874
        k(  106) = (   0.3076923   0.0888231   0.0914864), wk =   0.0202874
        k(  107) = (   0.3076923   0.0888231   0.1829729), wk =   0.0202874
        k(  108) = (   0.3076923   0.0888231   0.2744593), wk =   0.0202874
        k(  109) = (   0.3846154   0.1332347   0.0914864), wk =   0.0202874
        k(  110) = (   0.3846154   0.1332347   0.1829729), wk =   0.0202874
        k(  111) = (   0.3846154   0.1332347   0.2744593), wk =   0.0202874
        k(  112) = (   0.4615385   0.1776462   0.0914864), wk =   0.0202874
        k(  113) = (   0.4615385   0.1776462   0.1829729), wk =   0.0202874
        k(  114) = (   0.4615385   0.1776462   0.2744593), wk =   0.0202874
        k(  115) = (   0.3846154   0.0444116   0.0914864), wk =   0.0202874
        k(  116) = (   0.3846154   0.0444116   0.1829729), wk =   0.0202874
        k(  117) = (   0.3846154   0.0444116   0.2744593), wk =   0.0202874
        k(  118) = (   0.4615385   0.0888231   0.0914864), wk =   0.0202874
        k(  119) = (   0.4615385   0.0888231   0.1829729), wk =   0.0202874
        k(  120) = (   0.4615385   0.0888231   0.2744593), wk =   0.0202874
        k(  121) = (   0.5384615   0.1332347   0.0914864), wk =   0.0202874
        k(  122) = (   0.5384615   0.1332347   0.1829729), wk =   0.0202874
        k(  123) = (   0.5384615   0.1332347   0.2744593), wk =   0.0202874
        k(  124) = (   0.5384615   0.0444116   0.0914864), wk =   0.0202874
        k(  125) = (   0.5384615   0.0444116   0.1829729), wk =   0.0202874
        k(  126) = (   0.5384615   0.0444116   0.2744593), wk =   0.0202874

                       cryst. coord.
        k(    1) = (   0.0000000   0.0000000   0.0000000), wk =   0.0016906
        k(    2) = (   0.0000000   0.0000000   0.1428571), wk =   0.0033812
        k(    3) = (   0.0000000   0.0000000   0.2857143), wk =   0.0033812
        k(    4) = (   0.0000000   0.0000000   0.4285714), wk =   0.0033812
        k(    5) = (   0.0000000   0.0769231   0.0000000), wk =   0.0101437
        k(    6) = (   0.0000000   0.0769231   0.1428571), wk =   0.0101437
        k(    7) = (   0.0000000   0.0769231   0.2857143), wk =   0.0101437
        k(    8) = (   0.0000000   0.0769231   0.4285714), wk =   0.0101437
        k(    9) = (   0.0000000   0.1538462   0.0000000), wk =   0.0101437
        k(   10) = (   0.0000000   0.1538462   0.1428571), wk =   0.0101437
        k(   11) = (   0.0000000   0.1538462   0.2857143), wk =   0.0101437
        k(   12) = (   0.0000000   0.1538462   0.4285714), wk =   0.0101437
        k(   13) = (   0.0000000   0.2307692   0.0000000), wk =   0.0101437
        k(   14) = (   0.0000000   0.2307692   0.1428571), wk =   0.0101437
        k(   15) = (   0.0000000   0.2307692   0.2857143), wk =   0.0101437
        k(   16) = (   0.0000000   0.2307692   0.4285714), wk =   0.0101437
        k(   17) = (   0.0000000   0.3076923   0.0000000), wk =   0.0101437
        k(   18) = (   0.0000000   0.3076923   0.1428571), wk =   0.0101437
        k(   19) = (   0.0000000   0.3076923   0.2857143), wk =   0.0101437
        k(   20) = (   0.0000000   0.3076923   0.4285714), wk =   0.0101437
        k(   21) = (   0.0000000   0.3846154   0.0000000), wk =   0.0101437
        k(   22) = (   0.0000000   0.3846154   0.1428571), wk =   0.0101437
        k(   23) = (   0.0000000   0.3846154   0.2857143), wk =   0.0101437
        k(   24) = (   0.0000000   0.3846154   0.4285714), wk =   0.0101437
        k(   25) = (   0.0000000   0.4615385   0.0000000), wk =   0.0101437
        k(   26) = (   0.0000000   0.4615385   0.1428571), wk =   0.0101437
        k(   27) = (   0.0000000   0.4615385   0.2857143), wk =   0.0101437
        k(   28) = (   0.0000000   0.4615385   0.4285714), wk =   0.0101437
        k(   29) = (   0.0769231   0.0769231   0.0000000), wk =   0.0101437
        k(   30) = (   0.0769231   0.0769231   0.1428571), wk =   0.0202874
        k(   31) = (   0.0769231   0.0769231   0.2857143), wk =   0.0202874
        k(   32) = (   0.0769231   0.0769231   0.4285714), wk =   0.0202874
        k(   33) = (   0.0769231   0.1538462   0.0000000), wk =   0.0202874
        k(   34) = (   0.0769231   0.1538462   0.1428571), wk =   0.0202874
        k(   35) = (   0.0769231   0.1538462   0.2857143), wk =   0.0202874
        k(   36) = (   0.0769231   0.1538462   0.4285714), wk =   0.0202874
        k(   37) = (   0.0769231   0.2307692   0.0000000), wk =   0.0202874
        k(   38) = (   0.0769231   0.2307692   0.1428571), wk =   0.0202874
        k(   39) = (   0.0769231   0.2307692   0.2857143), wk =   0.0202874
        k(   40) = (   0.0769231   0.2307692   0.4285714), wk =   0.0202874
        k(   41) = (   0.0769231   0.3076923   0.0000000), wk =   0.0202874
        k(   42) = (   0.0769231   0.3076923   0.1428571), wk =   0.0202874
        k(   43) = (   0.0769231   0.3076923   0.2857143), wk =   0.0202874
        k(   44) = (   0.0769231   0.3076923   0.4285714), wk =   0.0202874
        k(   45) = (   0.0769231   0.3846154   0.0000000), wk =   0.0202874
        k(   46) = (   0.0769231   0.3846154   0.1428571), wk =   0.0202874
        k(   47) = (   0.0769231   0.3846154   0.2857143), wk =   0.0202874
        k(   48) = (   0.0769231   0.3846154   0.4285714), wk =   0.0202874
        k(   49) = (   0.0769231   0.4615385   0.0000000), wk =   0.0101437
        k(   50) = (   0.0769231   0.4615385   0.1428571), wk =   0.0202874
        k(   51) = (   0.0769231   0.4615385   0.2857143), wk =   0.0202874
        k(   52) = (   0.0769231   0.4615385   0.4285714), wk =   0.0202874
        k(   53) = (   0.1538462   0.1538462   0.0000000), wk =   0.0101437
        k(   54) = (   0.1538462   0.1538462   0.1428571), wk =   0.0202874
        k(   55) = (   0.1538462   0.1538462   0.2857143), wk =   0.0202874
        k(   56) = (   0.1538462   0.1538462   0.4285714), wk =   0.0202874
        k(   57) = (   0.1538462   0.2307692   0.0000000), wk =   0.0202874
        k(   58) = (   0.1538462   0.2307692   0.1428571), wk =   0.0202874
        k(   59) = (   0.1538462   0.2307692   0.2857143), wk =   0.0202874
        k(   60) = (   0.1538462   0.2307692   0.4285714), wk =   0.0202874
        k(   61) = (   0.1538462   0.3076923   0.0000000), wk =   0.0202874
        k(   62) = (   0.1538462   0.3076923   0.1428571), wk =   0.0202874
        k(   63) = (   0.1538462   0.3076923   0.2857143), wk =   0.0202874
        k(   64) = (   0.1538462   0.3076923   0.4285714), wk =   0.0202874
        k(   65) = (   0.1538462   0.3846154   0.0000000), wk =   0.0202874
        k(   66) = (   0.1538462   0.3846154   0.1428571), wk =   0.0202874
        k(   67) = (   0.1538462   0.3846154   0.2857143), wk =   0.0202874
        k(   68) = (   0.1538462   0.3846154   0.4285714), wk =   0.0202874
        k(   69) = (   0.2307692   0.2307692   0.0000000), wk =   0.0101437
        k(   70) = (   0.2307692   0.2307692   0.1428571), wk =   0.0202874
        k(   71) = (   0.2307692   0.2307692   0.2857143), wk =   0.0202874
        k(   72) = (   0.2307692   0.2307692   0.4285714), wk =   0.0202874
        k(   73) = (   0.2307692   0.3076923   0.0000000), wk =   0.0202874
        k(   74) = (   0.2307692   0.3076923   0.1428571), wk =   0.0202874
        k(   75) = (   0.2307692   0.3076923   0.2857143), wk =   0.0202874
        k(   76) = (   0.2307692   0.3076923   0.4285714), wk =   0.0202874
        k(   77) = (   0.2307692   0.3846154   0.0000000), wk =   0.0101437
        k(   78) = (   0.2307692   0.3846154   0.1428571), wk =   0.0202874
        k(   79) = (   0.2307692   0.3846154   0.2857143), wk =   0.0202874
        k(   80) = (   0.2307692   0.3846154   0.4285714), wk =   0.0202874
        k(   81) = (   0.3076923   0.3076923   0.0000000), wk =   0.0101437
        k(   82) = (   0.3076923   0.3076923   0.1428571), wk =   0.0202874
        k(   83) = (   0.3076923   0.3076923   0.2857143), wk =   0.0202874
        k(   84) = (   0.3076923   0.3076923   0.4285714), wk =   0.0202874
        k(   85) = (  -0.0769231  -0.0000000  -0.1428571), wk =   0.0101437
        k(   86) = (  -0.0769231  -0.0000000  -0.2857143), wk =   0.0101437
        k(   87) = (  -0.0769231  -0.0000000  -0.4285714), wk =   0.0101437
        k(   88) = (  -0.1538462  -0.0000000  -0.1428571), wk =   0.0101437
        k(   89) = (  -0.1538462  -0.0000000  -0.2857143), wk =   0.0101437
        k(   90) = (  -0.1538462  -0.0000000  -0.4285714), wk =   0.0101437
        k(   91) = (  -0.2307692  -0.0000000  -0.1428571), wk =   0.0101437
        k(   92) = (  -0.2307692  -0.0000000  -0.2857143), wk =   0.0101437
        k(   93) = (  -0.2307692  -0.0000000  -0.4285714), wk =   0.0101437
        k(   94) = (  -0.3076923  -0.0000000  -0.1428571), wk =   0.0101437
        k(   95) = (  -0.3076923  -0.0000000  -0.2857143), wk =   0.0101437
        k(   96) = (  -0.3076923  -0.0000000  -0.4285714), wk =   0.0101437
        k(   97) = (  -0.3846154  -0.0000000  -0.1428571), wk =   0.0101437
        k(   98) = (  -0.3846154  -0.0000000  -0.2857143), wk =   0.0101437
        k(   99) = (  -0.3846154  -0.0000000  -0.4285714), wk =   0.0101437
        k(  100) = (  -0.4615385  -0.0000000  -0.1428571), wk =   0.0101437
        k(  101) = (  -0.4615385  -0.0000000  -0.2857143), wk =   0.0101437
        k(  102) = (  -0.4615385  -0.0000000  -0.4285714), wk =   0.0101437
        k(  103) = (  -0.1538462  -0.0769231  -0.1428571), wk =   0.0202874
        k(  104) = (  -0.1538462  -0.0769231  -0.2857143), wk =   0.0202874
        k(  105) = (  -0.1538462  -0.0769231  -0.4285714), wk =   0.0202874
        k(  106) = (  -0.2307692  -0.0769231  -0.1428571), wk =   0.0202874
        k(  107) = (  -0.2307692  -0.0769231  -0.2857143), wk =   0.0202874
        k(  108) = (  -0.2307692  -0.0769231  -0.4285714), wk =   0.0202874
        k(  109) = (  -0.3076923  -0.0769231  -0.1428571), wk =   0.0202874
        k(  110) = (  -0.3076923  -0.0769231  -0.2857143), wk =   0.0202874
        k(  111) = (  -0.3076923  -0.0769231  -0.4285714), wk =   0.0202874
        k(  112) = (  -0.3846154  -0.0769231  -0.1428571), wk =   0.0202874
        k(  113) = (  -0.3846154  -0.0769231  -0.2857143), wk =   0.0202874
        k(  114) = (  -0.3846154  -0.0769231  -0.4285714), wk =   0.0202874
        k(  115) = (  -0.2307692  -0.1538462  -0.1428571), wk =   0.0202874
        k(  116) = (  -0.2307692  -0.1538462  -0.2857143), wk =   0.0202874
        k(  117) = (  -0.2307692  -0.1538462  -0.4285714), wk =   0.0202874
        k(  118) = (  -0.3076923  -0.1538462  -0.1428571), wk =   0.0202874
        k(  119) = (  -0.3076923  -0.1538462  -0.2857143), wk =   0.0202874
        k(  120) = (  -0.3076923  -0.1538462  -0.4285714), wk =   0.0202874
        k(  121) = (  -0.3846154  -0.1538462  -0.1428571), wk =   0.0202874
        k(  122) = (  -0.3846154  -0.1538462  -0.2857143), wk =   0.0202874
        k(  123) = (  -0.3846154  -0.1538462  -0.4285714), wk =   0.0202874
        k(  124) = (  -0.3076923  -0.2307692  -0.1428571), wk =   0.0202874
        k(  125) = (  -0.3076923  -0.2307692  -0.2857143), wk =   0.0202874
        k(  126) = (  -0.3076923  -0.2307692  -0.4285714), wk =   0.0202874

     Dense  grid:    25371 G-vectors     FFT dimensions: (  36,  36,  54)

     Smooth grid:     8971 G-vectors     FFT dimensions: (  24,  24,  40)

     Dynamical RAM for                 wfc:       0.32 MB

     Dynamical RAM for     wfc (w. buffer):       0.32 MB

     Dynamical RAM for           str. fact:       0.77 MB

     Dynamical RAM for           local pot:       0.00 MB

     Dynamical RAM for          nlocal pot:       0.75 MB

     Dynamical RAM for                qrad:       3.05 MB

     Dynamical RAM for          rho,v,vnew:       2.76 MB

     Dynamical RAM for           G-vectors:       1.52 MB

     Dynamical RAM for          h,s,v(r/c):       0.07 MB

     Dynamical RAM for          <psi|beta>:       0.01 MB

     Dynamical RAM for                 psi:       0.65 MB

     Dynamical RAM for                hpsi:       0.65 MB

     Dynamical RAM for                spsi:       0.65 MB

     Dynamical RAM for      wfcinit/wfcrot:       0.83 MB

     Dynamical RAM for           addusdens:      72.78 MB

     Estimated static dynamical RAM per process >      13.01 MB

     Estimated max dynamical RAM per process >      85.79 MB

     Check: negative core charge=   -0.000007

     The potential is recalculated from file :
     ./out/v2c.save/charge-density


     negative rho (up, down):  1.844E-03 0.000E+00
     Starting wfcs are   24 randomized atomic wfcs
     Checking if some PAW data can be deallocated... 

     Band Structure Calculation
     Davidson diagonalization with overlap

     Computing kpt #:     1  of   126
     total cpu time spent up to now is        4.8 secs

     Computing kpt #:     2  of   126
     total cpu time spent up to now is        6.4 secs

     Computing kpt #:     3  of   126
     total cpu time spent up to now is        8.3 secs

     Computing kpt #:     4  of   126
     total cpu time spent up to now is       10.5 secs

     Computing kpt #:     5  of   126
     total cpu time spent up to now is       13.3 secs

     Computing kpt #:     6  of   126
     total cpu time spent up to now is       15.3 secs

     Computing kpt #:     7  of   126
     total cpu time spent up to now is       17.3 secs

     Computing kpt #:     8  of   126
     total cpu time spent up to now is       20.0 secs

     Computing kpt #:     9  of   126
     total cpu time spent up to now is       21.6 secs

     Computing kpt #:    10  of   126
     total cpu time spent up to now is       23.6 secs

     Computing kpt #:    11  of   126
     total cpu time spent up to now is       25.3 secs

     Computing kpt #:    12  of   126
     total cpu time spent up to now is       27.3 secs

     Computing kpt #:    13  of   126
     total cpu time spent up to now is       29.1 secs

     Computing kpt #:    14  of   126
     total cpu time spent up to now is       31.4 secs

     Computing kpt #:    15  of   126
     total cpu time spent up to now is       33.8 secs

     Computing kpt #:    16  of   126
     total cpu time spent up to now is       35.5 secs

     Computing kpt #:    17  of   126
     total cpu time spent up to now is       37.0 secs

     Computing kpt #:    18  of   126
     total cpu time spent up to now is       38.6 secs

     Computing kpt #:    19  of   126
     total cpu time spent up to now is       40.4 secs

     Computing kpt #:    20  of   126
     total cpu time spent up to now is       42.8 secs

     Computing kpt #:    21  of   126
     total cpu time spent up to now is       44.2 secs

     Computing kpt #:    22  of   126
     total cpu time spent up to now is       45.7 secs

     Computing kpt #:    23  of   126
     total cpu time spent up to now is       47.5 secs

     Computing kpt #:    24  of   126
     total cpu time spent up to now is       49.4 secs

     Computing kpt #:    25  of   126
     total cpu time spent up to now is       51.3 secs

     Computing kpt #:    26  of   126
     total cpu time spent up to now is       53.8 secs

     Computing kpt #:    27  of   126
     total cpu time spent up to now is       55.5 secs

     Computing kpt #:    28  of   126
     total cpu time spent up to now is       57.2 secs

     Computing kpt #:    29  of   126
     total cpu time spent up to now is       58.7 secs

     Computing kpt #:    30  of   126
     total cpu time spent up to now is       60.4 secs

     Computing kpt #:    31  of   126
     total cpu time spent up to now is       62.0 secs

     Computing kpt #:    32  of   126
     total cpu time spent up to now is       63.7 secs

     Computing kpt #:    33  of   126
     total cpu time spent up to now is       64.4 secs

     Computing kpt #:    34  of   126
     total cpu time spent up to now is       65.6 secs

     Computing kpt #:    35  of   126
     total cpu time spent up to now is       67.1 secs

     Computing kpt #:    36  of   126
     total cpu time spent up to now is       68.6 secs

     Computing kpt #:    37  of   126
     total cpu time spent up to now is       69.9 secs

     Computing kpt #:    38  of   126
     total cpu time spent up to now is       71.4 secs

     Computing kpt #:    39  of   126
     total cpu time spent up to now is       72.9 secs

     Computing kpt #:    40  of   126
     total cpu time spent up to now is       74.7 secs

     Computing kpt #:    41  of   126
     total cpu time spent up to now is       76.0 secs

     Computing kpt #:    42  of   126
     total cpu time spent up to now is       77.6 secs

     Computing kpt #:    43  of   126
     total cpu time spent up to now is       79.7 secs

     Computing kpt #:    44  of   126
     total cpu time spent up to now is       82.1 secs

     Computing kpt #:    45  of   126
     total cpu time spent up to now is       83.9 secs

     Computing kpt #:    46  of   126
     total cpu time spent up to now is       85.5 secs

     Computing kpt #:    47  of   126
     total cpu time spent up to now is       87.9 secs

     Computing kpt #:    48  of   126
     total cpu time spent up to now is       89.9 secs

     Computing kpt #:    49  of   126
     total cpu time spent up to now is       92.1 secs

     Computing kpt #:    50  of   126
     total cpu time spent up to now is       93.7 secs

     Computing kpt #:    51  of   126
     total cpu time spent up to now is       95.3 secs

     Computing kpt #:    52  of   126
     total cpu time spent up to now is       97.2 secs

     Computing kpt #:    53  of   126
     total cpu time spent up to now is       98.4 secs

     Computing kpt #:    54  of   126
     total cpu time spent up to now is       99.9 secs

     Computing kpt #:    55  of   126
     total cpu time spent up to now is      101.5 secs

     Computing kpt #:    56  of   126
     total cpu time spent up to now is      103.0 secs

     Computing kpt #:    57  of   126
     total cpu time spent up to now is      104.3 secs

     Computing kpt #:    58  of   126
     total cpu time spent up to now is      105.8 secs

     Computing kpt #:    59  of   126
     total cpu time spent up to now is      107.4 secs

     Computing kpt #:    60  of   126
     total cpu time spent up to now is      108.9 secs

     Computing kpt #:    61  of   126
     total cpu time spent up to now is      110.4 secs

     Computing kpt #:    62  of   126
     total cpu time spent up to now is      111.9 secs

     Computing kpt #:    63  of   126
     total cpu time spent up to now is      113.8 secs

     Computing kpt #:    64  of   126
     total cpu time spent up to now is      115.8 secs

     Computing kpt #:    65  of   126
     total cpu time spent up to now is      117.4 secs

     Computing kpt #:    66  of   126
     total cpu time spent up to now is      119.0 secs

     Computing kpt #:    67  of   126
     total cpu time spent up to now is      120.7 secs

     Computing kpt #:    68  of   126
     total cpu time spent up to now is      122.5 secs

     Computing kpt #:    69  of   126
     total cpu time spent up to now is      124.1 secs

     Computing kpt #:    70  of   126
     total cpu time spent up to now is      126.2 secs

     Computing kpt #:    71  of   126
     total cpu time spent up to now is      128.5 secs

     Computing kpt #:    72  of   126
     total cpu time spent up to now is      130.3 secs

     Computing kpt #:    73  of   126
     total cpu time spent up to now is      132.1 secs

     Computing kpt #:    74  of   126
     total cpu time spent up to now is      134.2 secs

     Computing kpt #:    75  of   126
     total cpu time spent up to now is      135.9 secs

     Computing kpt #:    76  of   126
     total cpu time spent up to now is      137.5 secs

     Computing kpt #:    77  of   126
     total cpu time spent up to now is      140.0 secs

     Computing kpt #:    78  of   126
     total cpu time spent up to now is      141.9 secs

     Computing kpt #:    79  of   126
     total cpu time spent up to now is      144.2 secs

     Computing kpt #:    80  of   126
     total cpu time spent up to now is      146.3 secs

     Computing kpt #:    81  of   126
     total cpu time spent up to now is      148.3 secs

     Computing kpt #:    82  of   126
     total cpu time spent up to now is      150.2 secs

     Computing kpt #:    83  of   126
     total cpu time spent up to now is      152.1 secs

     Computing kpt #:    84  of   126
     total cpu time spent up to now is      153.7 secs

     Computing kpt #:    85  of   126
     total cpu time spent up to now is      155.4 secs

     Computing kpt #:    86  of   126
     total cpu time spent up to now is      157.4 secs

     Computing kpt #:    87  of   126
     total cpu time spent up to now is      159.2 secs

     Computing kpt #:    88  of   126
     total cpu time spent up to now is      160.9 secs

     Computing kpt #:    89  of   126
     total cpu time spent up to now is      162.7 secs

     Computing kpt #:    90  of   126
     total cpu time spent up to now is      164.3 secs

     Computing kpt #:    91  of   126
     total cpu time spent up to now is      166.4 secs

     Computing kpt #:    92  of   126
     total cpu time spent up to now is      168.3 secs

     Computing kpt #:    93  of   126
     total cpu time spent up to now is      170.3 secs

     Computing kpt #:    94  of   126
     total cpu time spent up to now is      171.9 secs

     Computing kpt #:    95  of   126
     total cpu time spent up to now is      173.9 secs

     Computing kpt #:    96  of   126
     total cpu time spent up to now is      175.8 secs

     Computing kpt #:    97  of   126
     total cpu time spent up to now is      177.3 secs

     Computing kpt #:    98  of   126
     total cpu time spent up to now is      179.4 secs

     Computing kpt #:    99  of   126
     total cpu time spent up to now is      182.4 secs

     Computing kpt #:   100  of   126
     total cpu time spent up to now is      184.1 secs

     Computing kpt #:   101  of   126
     total cpu time spent up to now is      185.9 secs

     Computing kpt #:   102  of   126
     total cpu time spent up to now is      187.4 secs

     Computing kpt #:   103  of   126
     total cpu time spent up to now is      188.9 secs

     Computing kpt #:   104  of   126
     total cpu time spent up to now is      190.5 secs

     Computing kpt #:   105  of   126
     total cpu time spent up to now is      191.9 secs

     Computing kpt #:   106  of   126
     total cpu time spent up to now is      193.2 secs

     Computing kpt #:   107  of   126
     total cpu time spent up to now is      194.6 secs

     Computing kpt #:   108  of   126
     total cpu time spent up to now is      195.5 secs

     Computing kpt #:   109  of   126
     total cpu time spent up to now is      196.3 secs

     Computing kpt #:   110  of   126
     total cpu time spent up to now is      197.8 secs

     Computing kpt #:   111  of   126
     total cpu time spent up to now is      199.6 secs

     Computing kpt #:   112  of   126
     total cpu time spent up to now is      201.1 secs

     Computing kpt #:   113  of   126
     total cpu time spent up to now is      202.9 secs

     Computing kpt #:   114  of   126
     total cpu time spent up to now is      204.4 secs

     Computing kpt #:   115  of   126
     total cpu time spent up to now is      205.8 secs

     Computing kpt #:   116  of   126
     total cpu time spent up to now is      207.3 secs

     Computing kpt #:   117  of   126
     total cpu time spent up to now is      208.9 secs

     Computing kpt #:   118  of   126
     total cpu time spent up to now is      210.3 secs

     Computing kpt #:   119  of   126
     total cpu time spent up to now is      212.1 secs

     Computing kpt #:   120  of   126
     total cpu time spent up to now is      213.8 secs

     Computing kpt #:   121  of   126
     total cpu time spent up to now is      215.4 secs

     Computing kpt #:   122  of   126
     total cpu time spent up to now is      217.0 secs

     Computing kpt #:   123  of   126
     total cpu time spent up to now is      218.6 secs

     Computing kpt #:   124  of   126
     total cpu time spent up to now is      220.2 secs

     Computing kpt #:   125  of   126
     total cpu time spent up to now is      222.2 secs

     Computing kpt #:   126  of   126
     total cpu time spent up to now is      223.9 secs

     ethr =  2.00E-12,  avg # of iterations = 54.7

     total cpu time spent up to now is      224.3 secs

     End of band structure calculation

          k =-0.0000 0.0000 0.0000 (  1105 PWs)   bands (ev):

   -48.0959 -47.9852 -22.1897 -21.7542 -21.7542 -21.6732 -21.6732 -21.5840
     3.6470  10.5533  13.3881  13.3881  14.1295  16.2226  16.3444  16.3444
    16.6414  16.6414  17.5718

     occupation numbers 
     1.0000   1.0000   1.0000   1.0000   1.0000   1.0000   1.0000   1.0000
     1.0000   1.0000   1.0000   1.0000   1.0000   0.6561   0.0000   0.0000
     0.0000   0.0000   0.0000

          k =-0.0000 0.0000-0.0915 (  1104 PWs)   bands (ev):

   -48.0905 -47.9907 -22.1607 -21.7504 -21.7504 -21.6771 -21.6771 -21.6151
     3.7088  10.3740  13.3382  13.3382  14.2448  16.1018  16.2632  16.2632
    16.7391  16.7391  17.7189

     occupation numbers 
     1.0000   1.0000   1.0000   1.0000   1.0000   1.0000   1.0000   1.0000
     1.0000   1.0000   1.0000   1.0000   1.0000   0.9890   0.1005  -0.0029
     0.0000   0.0000   0.0000

          k =-0.0000 0.0000-0.1830 (  1128 PWs)   bands (ev):

   -48.0754 -48.0061 -22.0791 -21.7397 -21.7397 -21.7015 -21.6878 -21.6878
     3.8552   9.9860  13.2370  13.2370  14.5409  15.8111  16.0417  16.0417
    17.1201  17.1201  17.9325

     occupation numbers 
     1.0000   1.0000   1.0000   1.0000   1.0000   1.0000   1.0000   1.0000
     1.0000   1.0000   1.0000   1.0000   1.0000   1.0000   0.9821   0.9186
     0.0000   0.0000   0.0000

          k =-0.0000 0.0000-0.2745 (  1110 PWs)   bands (ev):

   -48.0537 -48.0279 -21.9598 -21.8245 -21.7254 -21.7254 -21.7022 -21.7022
     3.9817   9.6837  13.1645  13.1645  14.9118  15.4545  15.8903  15.8903
    17.5437  17.5437  17.9715

     occupation numbers 
     1.0000   1.0000   1.0000   1.0000   1.0000   1.0000   1.0000   1.0000
     1.0000   1.0000   1.0000   1.0000   1.0000   1.0000   1.0000   1.0039
     0.0000   0.0000   0.0000

          k =-0.0769 0.0444 0.0000 (  1100 PWs)   bands (ev):

   -48.0915 -47.9837 -22.1786 -21.7762 -21.7623 -21.6944 -21.6750 -21.5883
     3.7483  10.6808  12.9957  13.3936  14.2725  16.0876  16.3154  16.4149
    16.5329  16.5720  17.7257

     occupation numbers 
     1.0000   1.0000   1.0000   1.0000   1.0000   1.0000   1.0000   1.0000
     1.0000   1.0000   1.0000   1.0000   1.0000   0.9954  -0.0541   0.0000
     0.0000   0.0000   0.0000

          k =-0.0769 0.0444-0.0915 (  1108 PWs)   bands (ev):

   -48.0863 -47.9890 -22.1513 -21.7730 -21.7567 -21.7004 -21.6806 -21.6146
     3.8058  10.5040  12.9888  13.4060  14.3071  15.9479  16.2240  16.3058
    16.5379  16.8753  17.8199

     occupation numbers 
     1.0000   1.0000   1.0000   1.0000   1.0000   1.0000   1.0000   1.0000
     1.0000   1.0000   1.0000   1.0000   1.0000   1.0070   0.2305  -0.0207
     0.0000   0.0000   0.0000

          k =-0.0769 0.0444-0.1830 (  1110 PWs)   bands (ev):

   -48.0715 -48.0040 -22.0745 -21.7636 -21.7439 -21.7334 -21.6935 -21.6722
     3.9429  10.1261  12.9822  13.3200  14.5197  15.7089  15.9883  16.0682
    16.9138  17.2907  17.9486

     occupation numbers 
     1.0000   1.0000   1.0000   1.0000   1.0000   1.0000   1.0000   1.0000
     1.0000   1.0000   1.0000   1.0000   1.0000   1.0000   1.0320   0.7462
     0.0000   0.0000   0.0000

          k =-0.0769 0.0444-0.2745 (  1108 PWs)   bands (ev):

   -48.0504 -48.0253 -21.9633 -21.8380 -21.7378 -21.7278 -21.7096 -21.7081
     4.0612   9.8336  12.9872  13.2128  14.8774  15.3488  15.8056  15.9582
    17.4041  17.6514  17.9336

     occupation numbers 
     1.0000   1.0000   1.0000   1.0000   1.0000   1.0000   1.0000   1.0000
     1.0000   1.0000   1.0000   1.0000   1.0000   1.0000   1.0000   1.1281
     0.0000   0.0000   0.0000

          k =-0.1538 0.0888 0.0000 (  1106 PWs)   bands (ev):

   -48.0791 -47.9796 -22.1466 -21.8370 -21.7836 -21.7523 -21.6807 -21.6016
     4.0347  11.0342  12.2982  13.3790  14.3335  15.5396  16.1423  16.4276
    16.7283  16.7588  18.0105

     occupation numbers 
     1.0000   1.0000   1.0000   1.0000   1.0000   1.0000   1.0000   1.0000
     1.0000   1.0000   1.0000   1.0000   1.0000   1.0000   0.6948   0.0000
     0.0000   0.0000   0.0000

          k =-0.1538 0.0888-0.0915 (  1107 PWs)   bands (ev):

   -48.0743 -47.9845 -22.1256 -21.8315 -21.7765 -21.7605 -21.6879 -21.6213
     4.0781  10.8686  12.3918  13.4522  14.2850  15.5046  16.0644  16.2591
    16.6775  16.9610  18.1015

     occupation numbers 
     1.0000   1.0000   1.0000   1.0000   1.0000   1.0000   1.0000   1.0000
     1.0000   1.0000   1.0000   1.0000   1.0000   1.0000   0.9847  -0.0016
     0.0000   0.0000   0.0000

          k =-0.1538 0.0888-0.1830 (  1107 PWs)   bands (ev):

   -48.0606 -47.9983 -22.0659 -21.8212 -21.7876 -21.7608 -21.7038 -21.6675
     4.1879  10.5262  12.5016  13.4040  14.3820  15.4300  15.8328  16.1797
    16.8409  17.2841  18.1493

     occupation numbers 
     1.0000   1.0000   1.0000   1.0000   1.0000   1.0000   1.0000   1.0000
     1.0000   1.0000   1.0000   1.0000   1.0000   1.0000   1.0144   0.0838
     0.0000   0.0000   0.0000

          k =-0.1538 0.0888-0.2745 (  1107 PWs)   bands (ev):

   -48.0411 -48.0180 -21.9819 -21.8791 -21.7647 -21.7403 -21.7243 -21.7190
     4.2849  10.2582  12.5667  13.2824  14.6535  15.3095  15.5040  16.1770
    17.2704  17.6614  17.9667

     occupation numbers 
     1.0000   1.0000   1.0000   1.0000   1.0000   1.0000   1.0000   1.0000
     1.0000   1.0000   1.0000   1.0000   1.0000   1.0000   1.0000   0.1656
     0.0000   0.0000   0.0000

          k =-0.2308 0.1332 0.0000 (  1110 PWs)   bands (ev):

   -48.0610 -47.9745 -22.0979 -21.9225 -21.8319 -21.8119 -21.6905 -21.6245
     4.4550  11.4944  11.6173  13.2930  14.2117  15.0169  15.8981  16.5851
    17.1095  17.1720  18.2651

     occupation numbers 
     1.0000   1.0000   1.0000   1.0000   1.0000   1.0000   1.0000   1.0000
     1.0000   1.0000   1.0000   1.0000   1.0000   1.0000   1.0000   0.0000
     0.0000   0.0000   0.0000

          k =-0.2308 0.1332-0.0915 (  1111 PWs)   bands (ev):

   -48.0567 -47.9788 -22.0931 -21.9055 -21.8406 -21.8039 -21.6987 -21.6385
     4.4744  11.3784  11.7647  13.4045  14.1701  15.0149  15.8012  16.3502
    17.0715  17.1828  18.3064

     occupation numbers 
     1.0000   1.0000   1.0000   1.0000   1.0000   1.0000   1.0000   1.0000
     1.0000   1.0000   1.0000   1.0000   1.0000   1.0000   1.0000   0.0000
     0.0000   0.0000   0.0000

          k =-0.2308 0.1332-0.1830 (  1110 PWs)   bands (ev):

   -48.0449 -47.9908 -22.0697 -21.8957 -21.8414 -21.7855 -21.7173 -21.6727
     4.5439  11.1060  11.9241  13.4224  14.1796  15.0796  15.6896  16.3097
    17.0778  17.2753  18.2736

     occupation numbers 
     1.0000   1.0000   1.0000   1.0000   1.0000   1.0000   1.0000   1.0000
     1.0000   1.0000   1.0000   1.0000   1.0000   1.0000   1.0000   0.0000
     0.0000   0.0000   0.0000

          k =-0.2308 0.1332-0.2745 (  1117 PWs)   bands (ev):

   -48.0279 -48.0079 -22.0283 -21.9458 -21.7826 -21.7605 -21.7424 -21.7242
     4.6133  10.8519  12.0137  13.3296  14.3737  15.1248  15.4089  16.4482
    17.3039  17.5807  18.0679

     occupation numbers 
     1.0000   1.0000   1.0000   1.0000   1.0000   1.0000   1.0000   1.0000
     1.0000   1.0000   1.0000   1.0000   1.0000   1.0000   1.0000   0.0000
     0.0000   0.0000   0.0000

          k =-0.3077 0.1776 0.0000 (  1118 PWs)   bands (ev):

   -48.0403 -47.9705 -22.0418 -22.0104 -21.9143 -21.8405 -21.7021 -21.6565
     4.9273  10.9617  11.9970  13.1441  13.9318  14.7367  15.8101  16.9987
    17.5621  17.6553  18.4479

     occupation numbers 
     1.0000   1.0000   1.0000   1.0000   1.0000   1.0000   1.0000   1.0000
     1.0000   1.0000   1.0000   1.0000   1.0000   1.0000   1.0000   0.0000
     0.0000   0.0000   0.0000

          k =-0.3077 0.1776-0.0915 (  1109 PWs)   bands (ev):

   -48.0368 -47.9739 -22.0852 -21.9558 -21.9177 -21.8320 -21.7108 -21.6645
     4.9186  11.1638  11.8880  13.2611  14.0278  14.6546  15.6642  16.7111
    17.5358  17.5444  18.4672

     occupation numbers 
     1.0000   1.0000   1.0000   1.0000   1.0000   1.0000   1.0000   1.0000
     1.0000   1.0000   1.0000   1.0000   1.0000   1.0000   1.0000   0.0000
     0.0000   0.0000   0.0000

          k =-0.3077 0.1776-0.1830 (  1118 PWs)   bands (ev):

   -48.0272 -47.9836 -22.1041 -21.9770 -21.8575 -21.8116 -21.7316 -21.6848
     4.9447  11.2869  11.7342  13.3475  14.0654  14.7700  15.6262  16.5501
    17.4408  17.4952  18.3919

     occupation numbers 
     1.0000   1.0000   1.0000   1.0000   1.0000   1.0000   1.0000   1.0000
     1.0000   1.0000   1.0000   1.0000   1.0000   1.0000   1.0000   0.0000
     0.0000   0.0000   0.0000

          k =-0.3077 0.1776-0.2745 (  1117 PWs)   bands (ev):

   -48.0135 -47.9974 -22.0925 -22.0252 -21.7832 -21.7798 -21.7602 -21.7261
     4.9870  11.1074  11.7691  13.3247  14.2671  14.8148  15.5551  16.6504
    17.5491  17.5856  18.1589

     occupation numbers 
     1.0000   1.0000   1.0000   1.0000   1.0000   1.0000   1.0000   1.0000
     1.0000   1.0000   1.0000   1.0000   1.0000   1.0000   1.0000   0.0000
     0.0000   0.0000   0.0000

          k =-0.3846 0.2221 0.0000 (  1112 PWs)   bands (ev):

   -48.0211 -47.9691 -22.0908 -21.9812 -21.9767 -21.8635 -21.7125 -21.6940
     5.3458  10.4961  12.2898  12.9961  13.6318  14.6835  15.9122  17.5645
    18.0941  18.0989  18.5665

     occupation numbers 
     1.0000   1.0000   1.0000   1.0000   1.0000   1.0000   1.0000   1.0000
     1.0000   1.0000   1.0000   1.0000   1.0000   1.0000   1.0000   0.0000
     0.0000   0.0000   0.0000

          k =-0.3846 0.2221-0.0915 (  1121 PWs)   bands (ev):

   -48.0185 -47.9717 -22.1233 -22.0020 -21.9218 -21.8550 -21.7212 -21.6952
     5.3186  10.6579  12.2079  13.0969  13.8435  14.5616  15.7720  17.2363
    17.9509  18.0445  18.5842

     occupation numbers 
     1.0000   1.0000   1.0000   1.0000   1.0000   1.0000   1.0000   1.0000
     1.0000   1.0000   1.0000   1.0000   1.0000   1.0000   1.0000   0.0000
     0.0000   0.0000   0.0000

          k =-0.3846 0.2221-0.1830 (  1122 PWs)   bands (ev):

   -48.0114 -47.9789 -22.1507 -22.0475 -21.8425 -21.8333 -21.7432 -21.7006
     5.3115  10.7398  12.1094  13.2263  14.1208  14.5914  15.7224  16.8877
    17.8024  17.9113  18.5036

     occupation numbers 
     1.0000   1.0000   1.0000   1.0000   1.0000   1.0000   1.0000   1.0000
     1.0000   1.0000   1.0000   1.0000   1.0000   1.0000   1.0000   0.0000
     0.0000   0.0000   0.0000

          k =-0.3846 0.2221-0.2745 (  1121 PWs)   bands (ev):

   -48.0011 -47.9891 -22.1493 -22.0956 -21.8027 -21.7741 -21.7686 -21.7271
     5.3297  10.6597  12.0653  13.2796  14.4232  14.6630  15.7109  16.7874
    17.6029  17.9637  18.3231

     occupation numbers 
     1.0000   1.0000   1.0000   1.0000   1.0000   1.0000   1.0000   1.0000
     1.0000   1.0000   1.0000   1.0000   1.0000   1.0000   1.0000   0.0000
     0.0000   0.0000   0.0000

          k =-0.4615 0.2665 0.0000 (  1118 PWs)   bands (ev):

   -48.0086 -47.9700 -22.1330 -22.0185 -21.9335 -21.8762 -21.7248 -21.7185
     5.5963  10.2411  12.3988  12.9076  13.4573  14.7051  16.0581  18.0412
    18.3539  18.6523  18.7180

     occupation numbers 
     1.0000   1.0000   1.0000   1.0000   1.0000   1.0000   1.0000   1.0000
     1.0000   1.0000   1.0000   1.0000   1.0000   1.0000   1.0000   0.0000
     0.0000   0.0000   0.0000

          k =-0.4615 0.2665-0.0915 (  1112 PWs)   bands (ev):

   -48.0067 -47.9719 -22.1535 -22.0405 -21.8963 -21.8681 -21.7268 -21.7187
     5.5754  10.3058  12.3301  12.9807  13.6611  14.6892  15.9806  17.7554
    18.1973  18.6250  18.6310

     occupation numbers 
     1.0000   1.0000   1.0000   1.0000   1.0000   1.0000   1.0000   1.0000
     1.0000   1.0000   1.0000   1.0000   1.0000   1.0000   1.0000   0.0000
     0.0000   0.0000   0.0000

          k =-0.4615 0.2665-0.1830 (  1116 PWs)   bands (ev):

   -48.0013 -47.9772 -22.1779 -22.0907 -21.8461 -21.8273 -21.7492 -21.7115
     5.5547  10.3384  12.2347  13.1222  14.0510  14.7834  15.8942  17.2196
    18.1074  18.1859  18.5542

     occupation numbers 
     1.0000   1.0000   1.0000   1.0000   1.0000   1.0000   1.0000   1.0000
     1.0000   1.0000   1.0000   1.0000   1.0000   1.0000   1.0000   0.0000
     0.0000   0.0000   0.0000

          k =-0.4615 0.2665-0.2745 (  1123 PWs)   bands (ev):

   -47.9937 -47.9848 -22.1787 -22.1395 -21.8145 -21.7811 -21.7626 -21.7253
     5.5497  10.3135  12.1784  13.2302  14.3772  14.9533  15.8172  16.8964
    17.6501  18.2281  18.4782

     occupation numbers 
     1.0000   1.0000   1.0000   1.0000   1.0000   1.0000   1.0000   1.0000
     1.0000   1.0000   1.0000   1.0000   1.0000   1.0000   1.0000   0.0000
     0.0000   0.0000   0.0000

          k =-0.1538 0.0000 0.0000 (  1111 PWs)   bands (ev):

   -48.0831 -47.9809 -22.1571 -21.8127 -21.7865 -21.7258 -21.6822 -21.5971
     3.9421  10.9219  12.5015  13.3744  14.3390  15.6952  16.2417  16.4134
    16.5557  16.7446  17.8909

     occupation numbers 
     1.0000   1.0000   1.0000   1.0000   1.0000   1.0000   1.0000   1.0000
     1.0000   1.0000   1.0000   1.0000   1.0000   1.0000   0.1691   0.0000
     0.0000   0.0000   0.0000

          k =-0.1538 0.0000-0.0915 (  1110 PWs)   bands (ev):

   -48.0781 -47.9859 -22.1333 -21.8062 -21.7832 -21.7365 -21.6868 -21.6170
     3.9931  10.7473  12.5663  13.3241  14.3849  15.6383  16.1671  16.3758
    16.5539  16.9458  17.9738

     occupation numbers 
     1.0000   1.0000   1.0000   1.0000   1.0000   1.0000   1.0000   1.0000
     1.0000   1.0000   1.0000   1.0000   1.0000   1.0000   0.6654  -0.0097
     0.0000   0.0000   0.0000

          k =-0.1538 0.0000-0.1830 (  1107 PWs)   bands (ev):

   -48.0641 -48.0001 -22.0668 -21.7988 -21.7814 -21.7552 -21.6998 -21.6647
     4.1127  10.3872  12.6706  13.2375  14.5412  15.4878  15.8444  16.2753
    16.8536  17.3352  18.0524

     occupation numbers 
     1.0000   1.0000   1.0000   1.0000   1.0000   1.0000   1.0000   1.0000
     1.0000   1.0000   1.0000   1.0000   1.0000   1.0000   1.0292  -0.0135
     0.0000   0.0000   0.0000

          k =-0.1538 0.0000-0.2745 (  1105 PWs)   bands (ev):

   -48.0441 -48.0203 -21.9725 -21.8677 -21.7549 -21.7437 -21.7193 -21.7115
     4.2145  10.1169  12.7312  13.1784  14.8291  15.2293  15.5966  16.1477
    17.3444  17.6901  17.9162

     occupation numbers 
     1.0000   1.0000   1.0000   1.0000   1.0000   1.0000   1.0000   1.0000
     1.0000   1.0000   1.0000   1.0000   1.0000   1.0000   1.0000   0.3494
     0.0000   0.0000   0.0000

          k =-0.2308 0.0444 0.0000 (  1103 PWs)   bands (ev):

   -48.0678 -47.9763 -22.1166 -21.8801 -21.8367 -21.7703 -21.6946 -21.6153
     4.2957  11.3461  11.8638  13.2886  14.2955  15.1595  15.9856  16.4820
    16.8443  17.1404  18.0972

     occupation numbers 
     1.0000   1.0000   1.0000   1.0000   1.0000   1.0000   1.0000   1.0000
     1.0000   1.0000   1.0000   1.0000   1.0000   1.0000   1.0385   0.0000
     0.0000   0.0000   0.0000

          k =-0.2308 0.0444-0.0915 (  1108 PWs)   bands (ev):

   -48.0634 -47.9808 -22.1029 -21.8705 -21.8349 -21.7752 -21.7019 -21.6293
     4.3287  11.1847  11.9990  13.2819  14.3218  15.1665  16.0450  16.2106
    16.8394  17.2070  18.1603

     occupation numbers 
     1.0000   1.0000   1.0000   1.0000   1.0000   1.0000   1.0000   1.0000
     1.0000   1.0000   1.0000   1.0000   1.0000   1.0000   1.0059   0.0000
     0.0000   0.0000   0.0000

          k =-0.2308 0.0444-0.1830 (  1110 PWs)   bands (ev):

   -48.0508 -47.9935 -22.0623 -21.8698 -21.8239 -21.7777 -21.7183 -21.6652
     4.4149  10.8773  12.1650  13.2011  14.4512  15.1601  15.8361  16.2221
    16.8889  17.4257  18.1428

     occupation numbers 
     1.0000   1.0000   1.0000   1.0000   1.0000   1.0000   1.0000   1.0000
     1.0000   1.0000   1.0000   1.0000   1.0000   1.0000   1.0003  -0.0000
     0.0000   0.0000   0.0000

          k =-0.2308 0.0444-0.2745 (  1111 PWs)   bands (ev):

   -48.0328 -48.0116 -22.0044 -21.9207 -21.7783 -21.7645 -21.7373 -21.7141
     4.4918  10.6369  12.2627  13.1318  14.6482  15.2002  15.3785  16.3438
    17.2230  17.7390  17.9036

     occupation numbers 
     1.0000   1.0000   1.0000   1.0000   1.0000   1.0000   1.0000   1.0000
     1.0000   1.0000   1.0000   1.0000   1.0000   1.0000   1.0000  -0.0066
     0.0000   0.0000   0.0000

          k =-0.3077 0.0888 0.0000 (  1109 PWs)   bands (ev):

   -48.0484 -47.9718 -22.0628 -21.9671 -21.8975 -21.8168 -21.7082 -21.6430
     4.7425  11.2451  11.8353  13.1389  14.1161  14.7557  15.7701  16.8152
    17.2129  17.6390  18.2800

     occupation numbers 
     1.0000   1.0000   1.0000   1.0000   1.0000   1.0000   1.0000   1.0000
     1.0000   1.0000   1.0000   1.0000   1.0000   1.0000   1.0000   0.0000
     0.0000   0.0000   0.0000

          k =-0.3077 0.0888-0.0915 (  1107 PWs)   bands (ev):

   -48.0446 -47.9756 -22.0772 -21.9387 -21.8959 -21.8159 -21.7174 -21.6509
     4.7498  11.4126  11.7267  13.1475  14.2037  14.7513  15.7423  16.4766
    17.2109  17.6091  18.3256

     occupation numbers 
     1.0000   1.0000   1.0000   1.0000   1.0000   1.0000   1.0000   1.0000
     1.0000   1.0000   1.0000   1.0000   1.0000   1.0000   1.0000   0.0000
     0.0000   0.0000   0.0000

          k =-0.3077 0.0888-0.1830 (  1114 PWs)   bands (ev):

   -48.0341 -47.9862 -22.0802 -21.9467 -21.8533 -21.8066 -21.7372 -21.6731
     4.7946  11.4745  11.6126  13.0774  14.3385  14.8681  15.8206  16.1774
    17.2270  17.6258  18.2452

     occupation numbers 
     1.0000   1.0000   1.0000   1.0000   1.0000   1.0000   1.0000   1.0000
     1.0000   1.0000   1.0000   1.0000   1.0000   1.0000   1.0000   0.0000
     0.0000   0.0000   0.0000

          k =-0.3077 0.0888-0.2745 (  1118 PWs)   bands (ev):

   -48.0190 -48.0013 -22.0598 -21.9908 -21.7949 -21.7845 -21.7536 -21.7143
     4.8447  11.1979  11.7610  13.0363  14.4962  14.9910  15.4890  16.4352
    17.3572  17.7924  17.9628

     occupation numbers 
     1.0000   1.0000   1.0000   1.0000   1.0000   1.0000   1.0000   1.0000
     1.0000   1.0000   1.0000   1.0000   1.0000   1.0000   1.0000   0.0000
     0.0000   0.0000   0.0000

          k =-0.3846 0.1332 0.0000 (  1117 PWs)   bands (ev):

   -48.0283 -47.9692 -22.0539 -21.9990 -21.9574 -21.8550 -21.7211 -21.6787
     5.1886  10.7416  12.2058  12.9632  13.8475  14.6349  15.7271  17.3140
    17.6356  18.1686  18.4165

     occupation numbers 
     1.0000   1.0000   1.0000   1.0000   1.0000   1.0000   1.0000   1.0000
     1.0000   1.0000   1.0000   1.0000   1.0000   1.0000   1.0000   0.0000
     0.0000   0.0000   0.0000

          k =-0.3846 0.1332-0.0915 (  1116 PWs)   bands (ev):

   -48.0253 -47.9722 -22.0957 -21.9814 -21.9271 -21.8496 -21.7319 -21.6794
     5.1718  10.9183  12.1227  12.9986  14.0090  14.5793  15.6459  16.9112
    17.6512  18.0646  18.4873

     occupation numbers 
     1.0000   1.0000   1.0000   1.0000   1.0000   1.0000   1.0000   1.0000
     1.0000   1.0000   1.0000   1.0000   1.0000   1.0000   1.0000   0.0000
     0.0000   0.0000   0.0000

          k =-0.3846 0.1332-0.1830 (  1121 PWs)   bands (ev):

   -48.0172 -47.9803 -22.1227 -22.0174 -21.8595 -21.8244 -21.7545 -21.6865
     5.1797  11.0418  11.9967  12.9724  14.2247  14.7240  15.7433  16.4523
    17.6736  17.9242  18.4017

     occupation numbers 
     1.0000   1.0000   1.0000   1.0000   1.0000   1.0000   1.0000   1.0000
     1.0000   1.0000   1.0000   1.0000   1.0000   1.0000   1.0000   0.0000
     0.0000   0.0000   0.0000

          k =-0.3846 0.1332-0.2745 (  1119 PWs)   bands (ev):

   -48.0056 -47.9920 -22.1195 -22.0622 -21.8179 -21.7946 -21.7560 -21.7146
     5.2066  10.9654  11.9483  12.9679  14.4535  14.8662  15.6965  16.4384
    17.6718  17.9069  18.1344

     occupation numbers 
     1.0000   1.0000   1.0000   1.0000   1.0000   1.0000   1.0000   1.0000
     1.0000   1.0000   1.0000   1.0000   1.0000   1.0000   1.0000   0.0000
     0.0000   0.0000   0.0000

          k =-0.4615 0.1776 0.0000 (  1116 PWs)   bands (ev):

   -48.0119 -47.9695 -22.1117 -22.0012 -21.9454 -21.8797 -21.7306 -21.7158
     5.5242  10.4061  12.3913  12.7961  13.6561  14.6626  15.8470  17.8065
    18.0187  18.5287  18.6981

     occupation numbers 
     1.0000   1.0000   1.0000   1.0000   1.0000   1.0000   1.0000   1.0000
     1.0000   1.0000   1.0000   1.0000   1.0000   1.0000   1.0000   0.0000
     0.0000   0.0000   0.0000

          k =-0.4615 0.1776-0.0915 (  1114 PWs)   bands (ev):

   -48.0097 -47.9716 -22.1352 -22.0225 -21.9089 -21.8665 -21.7437 -21.7072
     5.5006  10.5157  12.3156  12.8677  13.8372  14.6208  15.7831  17.3757
    18.0541  18.4421  18.7607

     occupation numbers 
     1.0000   1.0000   1.0000   1.0000   1.0000   1.0000   1.0000   1.0000
     1.0000   1.0000   1.0000   1.0000   1.0000   1.0000   1.0000   0.0000
     0.0000   0.0000   0.0000

          k =-0.4615 0.1776-0.1830 (  1120 PWs)   bands (ev):

   -48.0039 -47.9775 -22.1606 -22.0696 -21.8705 -21.8139 -21.7680 -21.7003
     5.4872  10.5726  12.2260  12.9163  14.1891  14.7369  15.8243  16.8066
    18.0821  18.2435  18.5328

     occupation numbers 
     1.0000   1.0000   1.0000   1.0000   1.0000   1.0000   1.0000   1.0000
     1.0000   1.0000   1.0000   1.0000   1.0000   1.0000   1.0000   0.0000
     0.0000   0.0000   0.0000

          k =-0.4615 0.1776-0.2745 (  1120 PWs)   bands (ev):

   -47.9955 -47.9858 -22.1615 -22.1167 -21.8360 -21.8039 -21.7492 -21.7148
     5.4940  10.5258  12.1705  12.9449  14.5261  14.9008  15.8888  16.4781
    17.9140  18.0810  18.3628

     occupation numbers 
     1.0000   1.0000   1.0000   1.0000   1.0000   1.0000   1.0000   1.0000
     1.0000   1.0000   1.0000   1.0000   1.0000   1.0000   1.0000   0.0000
     0.0000   0.0000   0.0000

          k =-0.5385 0.2221 0.0000 (  1120 PWs)   bands (ev):

   -48.0050 -47.9706 -22.1329 -22.0171 -21.9203 -21.8883 -21.7347 -21.7339
     5.6501  10.2872  12.4511  12.7128  13.5928  14.6892  15.9305  18.0691
    18.1317  18.6190  19.1813

     occupation numbers 
     1.0000   1.0000   1.0000   1.0000   1.0000   1.0000   1.0000   1.0000
     1.0000   1.0000   1.0000   1.0000   1.0000   1.0000   1.0000   0.0000
     0.0000   0.0000   0.0000

          k =-0.5385 0.2221-0.0915 (  1114 PWs)   bands (ev):

   -48.0033 -47.9723 -22.1488 -22.0410 -21.9052 -21.8649 -21.7484 -21.7183
     5.6431  10.2927  12.3807  12.7693  13.7513  14.7483  15.9261  17.7516
    18.2026  18.4775  18.9418

     occupation numbers 
     1.0000   1.0000   1.0000   1.0000   1.0000   1.0000   1.0000   1.0000
     1.0000   1.0000   1.0000   1.0000   1.0000   1.0000   1.0000   0.0000
     0.0000   0.0000   0.0000

          k =-0.5385 0.2221-0.1830 (  1112 PWs)   bands (ev):

   -47.9985 -47.9770 -22.1707 -22.0930 -21.8783 -21.8065 -21.7726 -21.7043
     5.6274  10.3054  12.2755  12.8634  14.1321  14.9047  15.9199  17.1341
    18.2015  18.3089  18.5409

     occupation numbers 
     1.0000   1.0000   1.0000   1.0000   1.0000   1.0000   1.0000   1.0000
     1.0000   1.0000   1.0000   1.0000   1.0000   1.0000   1.0000   0.0000
     0.0000   0.0000   0.0000

          k =-0.5385 0.2221-0.2745 (  1123 PWs)   bands (ev):

   -47.9917 -47.9838 -22.1719 -22.1416 -21.8440 -21.8066 -21.7484 -21.7119
     5.6151  10.3157  12.2141  12.9284  14.5085  15.0524  15.9450  16.6069
    17.9264  18.2027  18.5086

     occupation numbers 
     1.0000   1.0000   1.0000   1.0000   1.0000   1.0000   1.0000   1.0000
     1.0000   1.0000   1.0000   1.0000   1.0000   1.0000   1.0000   0.0000
     0.0000   0.0000   0.0000

          k =-0.3077 0.0000 0.0000 (  1090 PWs)   bands (ev):

   -48.0512 -47.9723 -22.0707 -21.9272 -21.9198 -21.7928 -21.7211 -21.6385
     4.6762  11.3923  11.7739  13.0872  14.2237  14.7238  15.7483  16.7669
    17.0731  17.6536  18.1720

     occupation numbers 
     1.0000   1.0000   1.0000   1.0000   1.0000   1.0000   1.0000   1.0000
     1.0000   1.0000   1.0000   1.0000   1.0000   1.0000   1.0000   0.0000
     0.0000   0.0000   0.0000

          k =-0.3077 0.0000-0.0915 (  1108 PWs)   bands (ev):

   -48.0473 -47.9762 -22.0717 -21.9237 -21.9027 -21.8019 -21.7269 -21.6439
     4.7003  11.3889  11.7483  12.9764  14.3356  14.8081  15.7848  16.5854
    17.1353  17.6360  18.1901

     occupation numbers 
     1.0000   1.0000   1.0000   1.0000   1.0000   1.0000   1.0000   1.0000
     1.0000   1.0000   1.0000   1.0000   1.0000   1.0000   1.0000   0.0000
     0.0000   0.0000   0.0000

          k =-0.3077 0.0000-0.1830 (  1116 PWs)   bands (ev):

   -48.0365 -47.9872 -22.0635 -21.9442 -21.8466 -21.8108 -21.7422 -21.6648
     4.7557  11.2898  11.7753  12.8404  14.5861  14.8776  15.7559  16.3829
    17.1977  17.7079  18.1113

     occupation numbers 
     1.0000   1.0000   1.0000   1.0000   1.0000   1.0000   1.0000   1.0000
     1.0000   1.0000   1.0000   1.0000   1.0000   1.0000   1.0000   0.0000
     0.0000   0.0000   0.0000

          k =-0.3077 0.0000-0.2745 (  1118 PWs)   bands (ev):

   -48.0210 -48.0027 -22.0387 -21.9823 -21.8042 -21.7925 -21.7503 -21.7049
     4.8015  11.1532  11.8605  12.7879  14.8188  14.9484  15.3969  16.4738
    17.3633  17.6752  18.0477

     occupation numbers 
     1.0000   1.0000   1.0000   1.0000   1.0000   1.0000   1.0000   1.0000
     1.0000   1.0000   1.0000   1.0000   1.0000   1.0000   1.0000   0.0000
     0.0000   0.0000   0.0000

          k =-0.3846 0.0444 0.0000 (  1112 PWs)   bands (ev):

   -48.0321 -47.9695 -22.0209 -21.9999 -21.9637 -21.8340 -21.7457 -21.6709
     5.0976  10.9815  12.1540  12.8617  14.0968  14.4996  15.5263  17.2273
    17.3933  18.1914  18.2552

     occupation numbers 
     1.0000   1.0000   1.0000   1.0000   1.0000   1.0000   1.0000   1.0000
     1.0000   1.0000   1.0000   1.0000   1.0000   1.0000   1.0000   0.0000
     0.0000   0.0000   0.0000

          k =-0.3846 0.0444-0.0915 (  1113 PWs)   bands (ev):

   -48.0290 -47.9726 -22.0643 -21.9867 -21.9191 -21.8416 -21.7544 -21.6692
     5.0993  11.1064  12.0918  12.7364  14.2842  14.5397  15.5315  16.8451
    17.5295  18.0239  18.3858

     occupation numbers 
     1.0000   1.0000   1.0000   1.0000   1.0000   1.0000   1.0000   1.0000
     1.0000   1.0000   1.0000   1.0000   1.0000   1.0000   1.0000   0.0000
     0.0000   0.0000   0.0000

          k =-0.3846 0.0444-0.1830 (  1118 PWs)   bands (ev):

   -48.0204 -47.9813 -22.0896 -22.0060 -21.8570 -21.8390 -21.7693 -21.6745
     5.1210  11.2958  11.8959  12.5642  14.5715  14.7083  15.7129  16.3400
    17.6164  17.8744  18.3850

     occupation numbers 
     1.0000   1.0000   1.0000   1.0000   1.0000   1.0000   1.0000   1.0000
     1.0000   1.0000   1.0000   1.0000   1.0000   1.0000   1.0000   0.0000
     0.0000   0.0000   0.0000

          k =-0.3846 0.0444-0.2745 (  1116 PWs)   bands (ev):

   -48.0081 -47.9936 -22.0879 -22.0384 -21.8387 -21.8216 -21.7474 -21.7014
     5.1469  11.3693  11.7381  12.5250  14.6832  15.0078  15.5999  16.3142
    17.5281  17.8461  18.2864

     occupation numbers 
     1.0000   1.0000   1.0000   1.0000   1.0000   1.0000   1.0000   1.0000
     1.0000   1.0000   1.0000   1.0000   1.0000   1.0000   1.0000   0.0000
     0.0000   0.0000   0.0000

          k =-0.4615 0.0888 0.0000 (  1113 PWs)   bands (ev):

   -48.0141 -47.9693 -22.0757 -21.9890 -21.9535 -21.8799 -21.7634 -21.7096
     5.4624  10.6836  12.3295  12.6773  13.9539  14.5527  15.4639  17.6263
    17.8084  18.3329  18.6776

     occupation numbers 
     1.0000   1.0000   1.0000   1.0000   1.0000   1.0000   1.0000   1.0000
     1.0000   1.0000   1.0000   1.0000   1.0000   1.0000   1.0000   0.0000
     0.0000   0.0000   0.0000

          k =-0.4615 0.0888-0.0915 (  1115 PWs)   bands (ev):

   -48.0119 -47.9715 -22.0988 -22.0129 -21.9112 -21.8729 -21.7756 -21.6992
     5.4496  10.7998  12.2936  12.6074  14.0960  14.6013  15.4521  17.1844
    17.9577  18.2190  18.7592

     occupation numbers 
     1.0000   1.0000   1.0000   1.0000   1.0000   1.0000   1.0000   1.0000
     1.0000   1.0000   1.0000   1.0000   1.0000   1.0000   1.0000   0.0000
     0.0000   0.0000   0.0000

          k =-0.4615 0.0888-0.1830 (  1118 PWs)   bands (ev):

   -48.0057 -47.9777 -22.1252 -22.0479 -21.8964 -21.8267 -21.7850 -21.6887
     5.4494  10.9050  12.2417  12.4155  14.4115  14.8066  15.6423  16.5869
    17.9332  18.1421  18.7780

     occupation numbers 
     1.0000   1.0000   1.0000   1.0000   1.0000   1.0000   1.0000   1.0000
     1.0000   1.0000   1.0000   1.0000   1.0000   1.0000   1.0000   0.0000
     0.0000   0.0000   0.0000

          k =-0.4615 0.0888-0.2745 (  1124 PWs)   bands (ev):

   -47.9969 -47.9865 -22.1291 -22.0860 -21.8726 -21.8448 -21.7362 -21.7005
     5.4622  10.8966  12.1397  12.3878  14.6776  15.0351  15.8548  16.2098
    17.7107  18.2155  18.4087

     occupation numbers 
     1.0000   1.0000   1.0000   1.0000   1.0000   1.0000   1.0000   1.0000
     1.0000   1.0000   1.0000   1.0000   1.0000   1.0000   1.0000   0.0000
     0.0000   0.0000   0.0000

          k =-0.5385 0.1332 0.0000 (  1122 PWs)   bands (ev):

   -48.0018 -47.9713 -22.1127 -21.9987 -21.9115 -21.9085 -21.7728 -21.7434
     5.6752  10.5285  12.3476  12.5762  13.8842  14.6387  15.5387  17.8672
    18.1181  18.4573  19.0195

     occupation numbers 
     1.0000   1.0000   1.0000   1.0000   1.0000   1.0000   1.0000   1.0000
     1.0000   1.0000   1.0000   1.0000   1.0000   1.0000   1.0000   0.0000
     0.0000   0.0000   0.0000

          k =-0.5385 0.1332-0.0915 (  1112 PWs)   bands (ev):

   -48.0003 -47.9728 -22.1265 -22.0223 -21.9306 -21.8541 -21.7898 -21.7235
     5.6659  10.5711  12.3072  12.5645  14.0247  14.6884  15.5547  17.5006
    18.2130  18.3600  18.9688

     occupation numbers 
     1.0000   1.0000   1.0000   1.0000   1.0000   1.0000   1.0000   1.0000
     1.0000   1.0000   1.0000   1.0000   1.0000   1.0000   1.0000   0.0000
     0.0000   0.0000   0.0000

          k =-0.5385 0.1332-0.1830 (  1112 PWs)   bands (ev):

   -47.9961 -47.9770 -22.1467 -22.0709 -21.9225 -21.8213 -21.7835 -21.7006
     5.6599  10.5947  12.2787  12.4559  14.3868  14.8765  15.6855  16.8894
    18.1044  18.3982  18.6712

     occupation numbers 
     1.0000   1.0000   1.0000   1.0000   1.0000   1.0000   1.0000   1.0000
     1.0000   1.0000   1.0000   1.0000   1.0000   1.0000   1.0000   0.0000
     0.0000   0.0000   0.0000

          k =-0.5385 0.1332-0.2745 (  1112 PWs)   bands (ev):

   -47.9900 -47.9830 -22.1495 -22.1161 -21.8933 -21.8572 -21.7279 -21.7004
     5.6617  10.5787  12.2696  12.3679  14.7662  15.0424  15.9367  16.3159
    17.9624  18.2823  18.5335

     occupation numbers 
     1.0000   1.0000   1.0000   1.0000   1.0000   1.0000   1.0000   1.0000
     1.0000   1.0000   1.0000   1.0000   1.0000   1.0000   1.0000   0.0000
     0.0000   0.0000   0.0000

          k =-0.4615 0.0000 0.0000 (  1100 PWs)   bands (ev):

   -48.0149 -47.9692 -22.0496 -21.9983 -21.9561 -21.8667 -21.7885 -21.7074
     5.4384  10.8402  12.2437  12.6680  14.1331  14.4549  15.2680  17.6358
    17.6825  18.2476  18.6669

     occupation numbers 
     1.0000   1.0000   1.0000   1.0000   1.0000   1.0000   1.0000   1.0000
     1.0000   1.0000   1.0000   1.0000   1.0000   1.0000   1.0000   0.0000
     0.0000   0.0000   0.0000

          k =-0.4615 0.0000-0.0915 (  1113 PWs)   bands (ev):

   -48.0127 -47.9714 -22.0561 -22.0402 -21.8978 -21.8829 -21.7934 -21.6956
     5.4422  10.8889  12.2468  12.4826  14.3570  14.5218  15.2802  17.3357
    17.9150  18.0374  18.7189

     occupation numbers 
     1.0000   1.0000   1.0000   1.0000   1.0000   1.0000   1.0000   1.0000
     1.0000   1.0000   1.0000   1.0000   1.0000   1.0000   1.0000   0.0000
     0.0000   0.0000   0.0000

          k =-0.4615 0.0000-0.1830 (  1116 PWs)   bands (ev):

   -48.0064 -47.9777 -22.0896 -22.0575 -21.9012 -21.8486 -21.7854 -21.6830
     5.4510  11.0128  12.1286  12.2770  14.6832  14.7868  15.3387  16.9242
    17.6906  18.1351  18.7623

     occupation numbers 
     1.0000   1.0000   1.0000   1.0000   1.0000   1.0000   1.0000   1.0000
     1.0000   1.0000   1.0000   1.0000   1.0000   1.0000   1.0000   0.0000
     0.0000   0.0000   0.0000

          k =-0.4615 0.0000-0.2745 (  1118 PWs)   bands (ev):

   -47.9974 -47.9868 -22.1035 -22.0774 -21.8917 -21.8651 -21.7334 -21.6936
     5.4583  11.1364  11.9081  12.2615  14.8193  15.1675  15.3948  16.5975
    17.4467  18.2556  18.5185

     occupation numbers 
     1.0000   1.0000   1.0000   1.0000   1.0000   1.0000   1.0000   1.0000
     1.0000   1.0000   1.0000   1.0000   1.0000   1.0000   1.0000   0.0000
     0.0000   0.0000   0.0000

          k =-0.5385 0.0444 0.0000 (  1112 PWs)   bands (ev):

   -48.0000 -47.9717 -22.0850 -21.9940 -21.9119 -21.9020 -21.8181 -21.7485
     5.6815  10.8163  12.0292  12.6867  14.1237  14.6074  15.1536  17.8719
    18.0265  18.2860  18.9411

     occupation numbers 
     1.0000   1.0000   1.0000   1.0000   1.0000   1.0000   1.0000   1.0000
     1.0000   1.0000   1.0000   1.0000   1.0000   1.0000   1.0000   0.0000
     0.0000   0.0000   0.0000

          k =-0.5385 0.0444-0.0915 (  1114 PWs)   bands (ev):

   -47.9986 -47.9731 -22.0898 -22.0248 -21.9341 -21.8604 -21.8220 -21.7277
     5.6800  10.8600  11.9893  12.5965  14.2691  14.7035  15.1759  17.5490
    18.1175  18.2113  18.9644

     occupation numbers 
     1.0000   1.0000   1.0000   1.0000   1.0000   1.0000   1.0000   1.0000
     1.0000   1.0000   1.0000   1.0000   1.0000   1.0000   1.0000   0.0000
     0.0000   0.0000   0.0000

          k =-0.5385 0.0444-0.1830 (  1117 PWs)   bands (ev):

   -47.9947 -47.9770 -22.1062 -22.0605 -21.9524 -21.8675 -21.7716 -21.6991
     5.6851  10.9131  11.8992  12.4197  14.6289  14.9192  15.3133  17.0516
    17.8311  18.3788  18.8663

     occupation numbers 
     1.0000   1.0000   1.0000   1.0000   1.0000   1.0000   1.0000   1.0000
     1.0000   1.0000   1.0000   1.0000   1.0000   1.0000   1.0000   0.0000
     0.0000   0.0000   0.0000

          k =-0.5385 0.0444-0.2745 (  1115 PWs)   bands (ev):

   -47.9891 -47.9826 -22.1163 -22.0904 -21.9357 -21.9021 -21.7182 -21.6934
     5.6931  10.9309  11.8222  12.3189  14.9302  15.1351  15.4872  16.6442
    17.6269  18.3818  18.6791

     occupation numbers 
     1.0000   1.0000   1.0000   1.0000   1.0000   1.0000   1.0000   1.0000
     1.0000   1.0000   1.0000   1.0000   1.0000   1.0000   1.0000   0.0000
     0.0000   0.0000   0.0000

          k =-0.6154 0.0888 0.0000 (  1118 PWs)   bands (ev):

   -47.9927 -47.9745 -22.0982 -21.9744 -21.9465 -21.8722 -21.8279 -21.7737
     5.7690  10.8313  11.9092  12.7035  14.1150  14.6711  15.1635  17.9608
    18.1861  18.3561  19.0458

     occupation numbers 
     1.0000   1.0000   1.0000   1.0000   1.0000   1.0000   1.0000   1.0000
     1.0000   1.0000   1.0000   1.0000   1.0000   1.0000   1.0000   0.0000
     0.0000   0.0000   0.0000

          k =-0.6154 0.0888-0.0915 (  1114 PWs)   bands (ev):

   -47.9918 -47.9754 -22.1003 -22.0020 -21.9736 -21.8445 -21.8257 -21.7461
     5.7725  10.8240  11.8880  12.6233  14.2703  14.7523  15.2133  17.7378
    18.1576  18.2925  18.9810

     occupation numbers 
     1.0000   1.0000   1.0000   1.0000   1.0000   1.0000   1.0000   1.0000
     1.0000   1.0000   1.0000   1.0000   1.0000   1.0000   1.0000   0.0000
     0.0000   0.0000   0.0000

          k =-0.6154 0.0888-0.1830 (  1107 PWs)   bands (ev):

   -47.9893 -47.9779 -22.1104 -22.0545 -21.9812 -21.8758 -21.7600 -21.7086
     5.7802  10.8114  11.8394  12.4677  14.6350  14.9485  15.3474  17.2229
    17.9523  18.3036  18.8823

     occupation numbers 
     1.0000   1.0000   1.0000   1.0000   1.0000   1.0000   1.0000   1.0000
     1.0000   1.0000   1.0000   1.0000   1.0000   1.0000   1.0000   0.0000
     0.0000   0.0000   0.0000

          k =-0.6154 0.0888-0.2745 (  1107 PWs)   bands (ev):

   -47.9857 -47.9815 -22.1157 -22.0968 -21.9553 -21.9154 -21.7120 -21.6940
     5.7864  10.8051  11.7997  12.3571  14.9928  15.1138  15.4999  16.7456
    17.8266  18.1680  18.8752

     occupation numbers 
     1.0000   1.0000   1.0000   1.0000   1.0000   1.0000   1.0000   1.0000
     1.0000   1.0000   1.0000   1.0000   1.0000   1.0000   1.0000   0.0000
     0.0000   0.0000   0.0000

          k =-0.6154 0.0000 0.0000 (  1126 PWs)   bands (ev):

   -47.9879 -47.9772 -22.0866 -21.9730 -21.9423 -21.8639 -21.8507 -21.7927
     5.7998  11.0999  11.5953  12.7763  14.1978  14.7597  14.9412  18.1019
    18.1393  18.2659  18.9267

     occupation numbers 
     1.0000   1.0000   1.0000   1.0000   1.0000   1.0000   1.0000   1.0000
     1.0000   1.0000   1.0000   1.0000   1.0000   1.0000   1.0000   0.0000
     0.0000   0.0000   0.0000

          k =-0.6154 0.0000-0.0915 (  1120 PWs)   bands (ev):

   -47.9874 -47.9777 -22.0789 -22.0091 -21.9736 -21.8773 -21.8074 -21.7622
     5.8060  11.0906  11.5649  12.6796  14.3666  14.8377  14.9974  17.9122
    18.0253  18.2458  18.9713

     occupation numbers 
     1.0000   1.0000   1.0000   1.0000   1.0000   1.0000   1.0000   1.0000
     1.0000   1.0000   1.0000   1.0000   1.0000   1.0000   1.0000   0.0000
     0.0000   0.0000   0.0000

          k =-0.6154 0.0000-0.1830 (  1105 PWs)   bands (ev):

   -47.9859 -47.9792 -22.0686 -22.0584 -22.0101 -21.9065 -21.7461 -21.7171
     5.8200  11.0739  11.4935  12.5048  14.7386  15.0307  15.1375  17.4171
    17.8228  18.1934  19.0177

     occupation numbers 
     1.0000   1.0000   1.0000   1.0000   1.0000   1.0000   1.0000   1.0000
     1.0000   1.0000   1.0000   1.0000   1.0000   1.0000   1.0000   0.0000
     0.0000   0.0000   0.0000

          k =-0.6154 0.0000-0.2745 (  1112 PWs)   bands (ev):

   -47.9837 -47.9813 -22.0872 -22.0823 -21.9902 -21.9472 -21.7044 -21.6942
[...]
     0.0000   0.0000   0.0000

          k = 0.1538 0.0888 0.1830 (  1107 PWs)   bands (ev):

   -48.0606 -47.9983 -22.0625 -21.8167 -21.8001 -21.7682 -21.6962 -21.6630
     4.1987  10.4914  12.4897  13.1717  14.5868  15.3479  15.7988  16.4831
    17.0593  17.2707  18.0655

     occupation numbers 
     1.0000   1.0000   1.0000   1.0000   1.0000   1.0000   1.0000   1.0000
     1.0000   1.0000   1.0000   1.0000   1.0000   1.0000   1.0173  -0.0239
     0.0000   0.0000   0.0000

          k = 0.1538 0.0888 0.2745 (  1107 PWs)   bands (ev):

   -48.0411 -48.0180 -21.9764 -21.8867 -21.7649 -21.7490 -21.7169 -21.7156
     4.2901  10.2405  12.5715  13.1844  14.8560  15.0867  15.5456  16.2891
    17.5327  17.5952  17.8996

     occupation numbers 
     1.0000   1.0000   1.0000   1.0000   1.0000   1.0000   1.0000   1.0000
     1.0000   1.0000   1.0000   1.0000   1.0000   1.0000   1.0000  -0.0346
     0.0000   0.0000   0.0000

          k = 0.2308 0.1332 0.0915 (  1111 PWs)   bands (ev):

   -48.0567 -47.9788 -22.0861 -21.9072 -21.8518 -21.8081 -21.6944 -21.6326
     4.4990  11.2032  11.7588  13.1835  14.2419  15.0941  15.9694  16.9131
    17.0749  17.1908  18.2341

     occupation numbers 
     1.0000   1.0000   1.0000   1.0000   1.0000   1.0000   1.0000   1.0000
     1.0000   1.0000   1.0000   1.0000   1.0000   1.0000   1.0000   0.0000
     0.0000   0.0000   0.0000

          k = 0.2308 0.1332 0.1830 (  1110 PWs)   bands (ev):

   -48.0449 -47.9908 -22.0567 -21.9102 -21.8484 -21.7930 -21.7096 -21.6642
     4.5761  10.9083  11.9028  13.1496  14.4260  15.0043  15.8047  16.9153
    17.2564  17.4003  18.0957

     occupation numbers 
     1.0000   1.0000   1.0000   1.0000   1.0000   1.0000   1.0000   1.0000
     1.0000   1.0000   1.0000   1.0000   1.0000   1.0000   1.0000   0.0000
     0.0000   0.0000   0.0000

          k = 0.2308 0.1332 0.2745 (  1117 PWs)   bands (ev):

   -48.0279 -48.0078 -22.0132 -21.9626 -21.7889 -21.7698 -21.7330 -21.7163
     4.6283  10.7666  12.0038  13.2102  14.6938  14.7990  15.5190  16.6748
    17.6254  17.6524  17.8552

     occupation numbers 
     1.0000   1.0000   1.0000   1.0000   1.0000   1.0000   1.0000   1.0000
     1.0000   1.0000   1.0000   1.0000   1.0000   1.0000   1.0000   0.0000
     0.0000   0.0000   0.0000

          k = 0.3077 0.1776 0.0915 (  1109 PWs)   bands (ev):

   -48.0369 -47.9739 -22.0636 -21.9776 -21.9251 -21.8355 -21.7073 -21.6569
     4.9649  10.8180  11.9821  13.0819  13.9195  14.8772  15.9819  17.3018
    17.4996  17.6649  18.3307

     occupation numbers 
     1.0000   1.0000   1.0000   1.0000   1.0000   1.0000   1.0000   1.0000
     1.0000   1.0000   1.0000   1.0000   1.0000   1.0000   1.0000   0.0000
     0.0000   0.0000   0.0000

          k = 0.3077 0.1776 0.1830 (  1118 PWs)   bands (ev):

   -48.0273 -47.9835 -22.0798 -22.0016 -21.8685 -21.8178 -21.7252 -21.6736
     5.0038  10.7790  11.9096  13.1110  14.1440  14.8727  15.9091  17.3711
    17.5193  17.6679  18.0750

     occupation numbers 
     1.0000   1.0000   1.0000   1.0000   1.0000   1.0000   1.0000   1.0000
     1.0000   1.0000   1.0000   1.0000   1.0000   1.0000   1.0000   0.0000
     0.0000   0.0000   0.0000

          k = 0.3077 0.1776 0.2745 (  1117 PWs)   bands (ev):

   -48.0136 -47.9973 -22.0696 -22.0484 -21.7912 -21.7910 -21.7523 -21.7145
     5.0138  10.8792  11.8439  13.2149  14.5029  14.6497  15.6643  16.9905
    17.6714  17.7897  17.9572

     occupation numbers 
     1.0000   1.0000   1.0000   1.0000   1.0000   1.0000   1.0000   1.0000
     1.0000   1.0000   1.0000   1.0000   1.0000   1.0000   1.0000   0.0000
     0.0000   0.0000   0.0000

          k = 0.3846 0.2221 0.0915 (  1121 PWs)   bands (ev):

   -48.0186 -47.9716 -22.1069 -22.0150 -21.9330 -21.8572 -21.7189 -21.6875
     5.3730  10.3798  12.2632  12.9869  13.6670  14.8375  16.0571  17.7737
    17.9890  18.1240  18.3219

     occupation numbers 
     1.0000   1.0000   1.0000   1.0000   1.0000   1.0000   1.0000   1.0000
     1.0000   1.0000   1.0000   1.0000   1.0000   1.0000   1.0000   0.0000
     0.0000   0.0000   0.0000

          k = 0.3846 0.2221 0.1830 (  1122 PWs)   bands (ev):

   -48.0114 -47.9788 -22.1298 -22.0674 -21.8549 -21.8373 -21.7391 -21.6894
     5.3794  10.3787  12.1619  13.0740  13.9665  14.9323  16.0051  17.5910
    17.8065  17.9960  18.1894

     occupation numbers 
     1.0000   1.0000   1.0000   1.0000   1.0000   1.0000   1.0000   1.0000
     1.0000   1.0000   1.0000   1.0000   1.0000   1.0000   1.0000   0.0000
     0.0000   0.0000   0.0000

          k = 0.3846 0.2221 0.2745 (  1121 PWs)   bands (ev):

   -48.0012 -47.9890 -22.1265 -22.1183 -21.8077 -21.7807 -21.7690 -21.7151
     5.3599  10.4955  12.0848  13.2050  14.3508  14.8395  15.8018  17.0570
    17.6392  18.0567  18.2017

     occupation numbers 
     1.0000   1.0000   1.0000   1.0000   1.0000   1.0000   1.0000   1.0000
     1.0000   1.0000   1.0000   1.0000   1.0000   1.0000   1.0000   0.0000
     0.0000   0.0000   0.0000

          k = 0.4615 0.2665 0.0915 (  1112 PWs)   bands (ev):

   -48.0067 -47.9719 -22.1483 -22.0443 -21.9016 -21.8688 -21.7260 -21.7148
     5.6014  10.1953  12.3499  12.9442  13.5840  14.8164  16.0871  18.0550
    18.2204  18.4742  18.4845

     occupation numbers 
     1.0000   1.0000   1.0000   1.0000   1.0000   1.0000   1.0000   1.0000
     1.0000   1.0000   1.0000   1.0000   1.0000   1.0000   1.0000   0.0000
     0.0000   0.0000   0.0000

          k = 0.4615 0.2665 0.1830 (  1116 PWs)   bands (ev):

   -48.0014 -47.9772 -22.1703 -22.0978 -21.8475 -21.8333 -21.7478 -21.7061
     5.5868  10.2009  12.2466  13.0705  13.9497  14.9765  16.0061  17.4741
    18.0253  18.2164  18.4428

     occupation numbers 
     1.0000   1.0000   1.0000   1.0000   1.0000   1.0000   1.0000   1.0000
     1.0000   1.0000   1.0000   1.0000   1.0000   1.0000   1.0000   0.0000
     0.0000   0.0000   0.0000

          k = 0.4615 0.2665 0.2745 (  1123 PWs)   bands (ev):

   -47.9937 -47.9848 -22.1708 -22.1475 -21.8162 -21.7794 -21.7684 -21.7196
     5.5638  10.2524  12.1812  13.2042  14.3170  15.0726  15.8481  16.9911
    17.6326  18.2576  18.4244

     occupation numbers 
     1.0000   1.0000   1.0000   1.0000   1.0000   1.0000   1.0000   1.0000
     1.0000   1.0000   1.0000   1.0000   1.0000   1.0000   1.0000   0.0000
     0.0000   0.0000   0.0000

          k = 0.2308 0.0444 0.0915 (  1108 PWs)   bands (ev):

   -48.0634 -47.9808 -22.1006 -21.8673 -21.8419 -21.7796 -21.6986 -21.6267
     4.3382  11.1475  11.9577  13.1811  14.3676  15.2050  15.9777  16.5991
    16.8376  17.2000  18.1110

     occupation numbers 
     1.0000   1.0000   1.0000   1.0000   1.0000   1.0000   1.0000   1.0000
     1.0000   1.0000   1.0000   1.0000   1.0000   1.0000   1.0216   0.0000
     0.0000   0.0000   0.0000

          k = 0.2308 0.0444 0.1830 (  1110 PWs)   bands (ev):

   -48.0508 -47.9935 -22.0575 -21.8743 -21.8283 -21.7824 -21.7131 -21.6616
     4.4276  10.8200  12.1311  13.0932  14.5556  15.1350  15.7568  16.6067
    16.9566  17.4698  18.0617

     occupation numbers 
     1.0000   1.0000   1.0000   1.0000   1.0000   1.0000   1.0000   1.0000
     1.0000   1.0000   1.0000   1.0000   1.0000   1.0000   1.0003  -0.0001
     0.0000   0.0000   0.0000

          k = 0.2308 0.0444 0.2745 (  1111 PWs)   bands (ev):

   -48.0329 -48.0116 -21.9980 -21.9283 -21.7822 -21.7654 -21.7348 -21.7106
     4.4977  10.6100  12.2517  13.0850  14.8169  14.9928  15.4275  16.4611
    17.3669  17.6963  17.8977

     occupation numbers 
     1.0000   1.0000   1.0000   1.0000   1.0000   1.0000   1.0000   1.0000
     1.0000   1.0000   1.0000   1.0000   1.0000   1.0000   1.0000  -0.0019
     0.0000   0.0000   0.0000

          k = 0.3077 0.0888 0.0915 (  1107 PWs)   bands (ev):

   -48.0446 -47.9756 -22.0651 -21.9497 -21.9021 -21.8200 -21.7130 -21.6461
     4.7781  11.1214  11.8311  13.0331  14.1490  14.9042  15.8479  17.0152
    17.2158  17.6196  18.2041

     occupation numbers 
     1.0000   1.0000   1.0000   1.0000   1.0000   1.0000   1.0000   1.0000
     1.0000   1.0000   1.0000   1.0000   1.0000   1.0000   1.0000   0.0000
     0.0000   0.0000   0.0000

          k = 0.3077 0.0888 0.1830 (  1114 PWs)   bands (ev):

   -48.0341 -47.9861 -22.0635 -21.9648 -21.8610 -21.8110 -21.7305 -21.6662
     4.8313  11.0333  11.8102  12.9811  14.3688  14.9386  15.7363  17.0039
    17.3001  17.6676  18.0440

     occupation numbers 
     1.0000   1.0000   1.0000   1.0000   1.0000   1.0000   1.0000   1.0000
     1.0000   1.0000   1.0000   1.0000   1.0000   1.0000   1.0000   0.0000
     0.0000   0.0000   0.0000

          k = 0.3077 0.0888 0.2745 (  1118 PWs)   bands (ev):

   -48.0191 -48.0012 -22.0439 -22.0076 -21.8063 -21.7798 -21.7529 -21.7075
     4.8615  11.0364  11.8108  13.0017  14.6650  14.8287  15.4854  16.7846
    17.5367  17.6224  18.0052

     occupation numbers 
     1.0000   1.0000   1.0000   1.0000   1.0000   1.0000   1.0000   1.0000
     1.0000   1.0000   1.0000   1.0000   1.0000   1.0000   1.0000   0.0000
     0.0000   0.0000   0.0000

          k = 0.3846 0.1332 0.0915 (  1116 PWs)   bands (ev):

   -48.0254 -47.9721 -22.0749 -22.0015 -21.9354 -21.8519 -21.7278 -21.6736
     5.2179  10.6345  12.1823  12.8870  13.8985  14.7972  15.8592  17.5217
    17.6393  18.0281  18.3004

     occupation numbers 
     1.0000   1.0000   1.0000   1.0000   1.0000   1.0000   1.0000   1.0000
     1.0000   1.0000   1.0000   1.0000   1.0000   1.0000   1.0000   0.0000
     0.0000   0.0000   0.0000

          k = 0.3846 0.1332 0.1830 (  1121 PWs)   bands (ev):

   -48.0173 -47.9803 -22.0991 -22.0407 -21.8707 -21.8280 -21.7484 -21.6780
     5.2378  10.6452  12.0766  12.8957  14.1720  14.9006  15.8151  17.4496
    17.5542  17.8594  18.2260

     occupation numbers 
     1.0000   1.0000   1.0000   1.0000   1.0000   1.0000   1.0000   1.0000
     1.0000   1.0000   1.0000   1.0000   1.0000   1.0000   1.0000   0.0000
     0.0000   0.0000   0.0000

          k = 0.3846 0.1332 0.2745 (  1119 PWs)   bands (ev):

   -48.0057 -47.9919 -22.0966 -22.0852 -21.8265 -21.7892 -21.7614 -21.7058
     5.2328  10.7764  11.9868  12.9487  14.5106  14.8519  15.6574  16.9255
    17.5600  17.9705  18.1273

     occupation numbers 
     1.0000   1.0000   1.0000   1.0000   1.0000   1.0000   1.0000   1.0000
     1.0000   1.0000   1.0000   1.0000   1.0000   1.0000   1.0000   0.0000
     0.0000   0.0000   0.0000

          k = 0.4615 0.1776 0.0915 (  1114 PWs)   bands (ev):

   -48.0098 -47.9716 -22.1250 -22.0304 -21.9176 -21.8676 -21.7404 -21.7030
     5.5404  10.3276  12.3610  12.7736  13.7666  14.8009  15.9297  17.8948
    18.0233  18.1963  18.6453

     occupation numbers 
     1.0000   1.0000   1.0000   1.0000   1.0000   1.0000   1.0000   1.0000
     1.0000   1.0000   1.0000   1.0000   1.0000   1.0000   1.0000   0.0000
     0.0000   0.0000   0.0000

          k = 0.4615 0.1776 0.1830 (  1120 PWs)   bands (ev):

   -48.0040 -47.9774 -22.1462 -22.0834 -21.8762 -21.8202 -21.7634 -21.6936
     5.5367  10.3318  12.2484  12.8489  14.1083  14.9523  15.9096  17.3929
    17.8992  18.1872  18.4869

     occupation numbers 
     1.0000   1.0000   1.0000   1.0000   1.0000   1.0000   1.0000   1.0000
     1.0000   1.0000   1.0000   1.0000   1.0000   1.0000   1.0000   0.0000
     0.0000   0.0000   0.0000

          k = 0.4615 0.1776 0.2745 (  1120 PWs)   bands (ev):

   -47.9956 -47.9857 -22.1460 -22.1322 -21.8404 -21.8007 -21.7554 -21.7075
     5.5160  10.4167  12.1743  12.9266  14.4901  14.9946  15.8422  16.7921
    17.7801  18.1573  18.3760

     occupation numbers 
     1.0000   1.0000   1.0000   1.0000   1.0000   1.0000   1.0000   1.0000
     1.0000   1.0000   1.0000   1.0000   1.0000   1.0000   1.0000   0.0000
     0.0000   0.0000   0.0000

          k = 0.3846 0.0444 0.0915 (  1113 PWs)   bands (ev):

   -48.0290 -47.9726 -22.0504 -22.0013 -21.9216 -21.8436 -21.7513 -21.6671
     5.1171  10.9697  12.1188  12.7114  14.2185  14.6605  15.5674  17.1347
    17.5300  17.9710  18.3155

     occupation numbers 
     1.0000   1.0000   1.0000   1.0000   1.0000   1.0000   1.0000   1.0000
     1.0000   1.0000   1.0000   1.0000   1.0000   1.0000   1.0000   0.0000
     0.0000   0.0000   0.0000

          k = 0.3846 0.0444 0.1830 (  1118 PWs)   bands (ev):

   -48.0204 -47.9812 -22.0761 -22.0200 -21.8656 -21.8357 -21.7665 -21.6714
     5.1437  11.0597  11.9714  12.5889  14.4769  14.8933  15.5245  16.8936
    17.5903  17.7861  18.3247

     occupation numbers 
     1.0000   1.0000   1.0000   1.0000   1.0000   1.0000   1.0000   1.0000
     1.0000   1.0000   1.0000   1.0000   1.0000   1.0000   1.0000   0.0000
     0.0000   0.0000   0.0000

          k = 0.3846 0.0444 0.2745 (  1116 PWs)   bands (ev):

   -48.0081 -47.9936 -22.0776 -22.0491 -21.8446 -21.8162 -21.7497 -21.6983
     5.1571  11.2144  11.8168  12.5471  14.6874  15.1185  15.3577  16.6821
    17.4151  17.8466  18.3044

     occupation numbers 
     1.0000   1.0000   1.0000   1.0000   1.0000   1.0000   1.0000   1.0000
     1.0000   1.0000   1.0000   1.0000   1.0000   1.0000   1.0000   0.0000
     0.0000   0.0000   0.0000

          k = 0.4615 0.0888 0.0915 (  1115 PWs)   bands (ev):

   -48.0119 -47.9715 -22.0851 -22.0257 -21.9190 -21.8728 -21.7716 -21.6966
     5.4784  10.6318  12.3620  12.5135  14.1141  14.6804  15.5308  17.6473
    17.8966  18.0220  18.6772

     occupation numbers 
     1.0000   1.0000   1.0000   1.0000   1.0000   1.0000   1.0000   1.0000
     1.0000   1.0000   1.0000   1.0000   1.0000   1.0000   1.0000   0.0000
     0.0000   0.0000   0.0000

          k = 0.4615 0.0888 0.1830 (  1118 PWs)   bands (ev):

   -48.0058 -47.9776 -22.1068 -22.0667 -21.9018 -21.8270 -21.7833 -21.6843
     5.4856  10.6695  12.2460  12.4524  14.4409  14.8901  15.5348  17.3841
    17.5281  18.1633  18.6532

     occupation numbers 
     1.0000   1.0000   1.0000   1.0000   1.0000   1.0000   1.0000   1.0000
     1.0000   1.0000   1.0000   1.0000   1.0000   1.0000   1.0000   0.0000
     0.0000   0.0000   0.0000

          k = 0.4615 0.0888 0.2745 (  1124 PWs)   bands (ev):

   -47.9969 -47.9865 -22.1102 -22.1052 -21.8774 -21.8404 -21.7401 -21.6959
     5.4784  10.7811  12.1346  12.4330  14.7292  15.0646  15.5480  16.7579
    17.5200  18.2621  18.4254

     occupation numbers 
     1.0000   1.0000   1.0000   1.0000   1.0000   1.0000   1.0000   1.0000
     1.0000   1.0000   1.0000   1.0000   1.0000   1.0000   1.0000   0.0000
     0.0000   0.0000   0.0000

          k = 0.5385 0.1332 0.0915 (  1112 PWs)   bands (ev):

   -48.0003 -47.9728 -22.1223 -22.0258 -21.9333 -21.8562 -21.7871 -21.7222
     5.6809  10.4955  12.3590  12.4927  14.0441  14.7331  15.5854  17.7350
    18.1263  18.2889  18.9690

     occupation numbers 
     1.0000   1.0000   1.0000   1.0000   1.0000   1.0000   1.0000   1.0000
     1.0000   1.0000   1.0000   1.0000   1.0000   1.0000   1.0000   0.0000
     0.0000   0.0000   0.0000

          k = 0.5385 0.1332 0.1830 (  1112 PWs)   bands (ev):

   -47.9961 -47.9770 -22.1400 -22.0777 -21.9243 -21.8212 -21.7840 -21.6982
     5.6786  10.4961  12.2947  12.4410  14.4161  14.9081  15.6555  17.1848
    17.9477  18.4174  18.7049

     occupation numbers 
     1.0000   1.0000   1.0000   1.0000   1.0000   1.0000   1.0000   1.0000
     1.0000   1.0000   1.0000   1.0000   1.0000   1.0000   1.0000   0.0000
     0.0000   0.0000   0.0000

          k = 0.5385 0.1332 0.2745 (  1112 PWs)   bands (ev):

   -47.9901 -47.9830 -22.1421 -22.1236 -21.8950 -21.8556 -21.7304 -21.6977
     5.6700  10.5332  12.2538  12.3918  14.8085  15.0258  15.7910  16.5671
    17.8723  18.3232  18.5523

     occupation numbers 
     1.0000   1.0000   1.0000   1.0000   1.0000   1.0000   1.0000   1.0000
     1.0000   1.0000   1.0000   1.0000   1.0000   1.0000   1.0000   0.0000
     0.0000   0.0000   0.0000

          k = 0.5385 0.0444 0.0915 (  1114 PWs)   bands (ev):

   -47.9986 -47.9731 -22.0848 -22.0298 -21.9357 -21.8619 -21.8197 -21.7269
     5.6884  10.8036  12.0098  12.5743  14.3369  14.6693  15.1975  17.7944
    17.9072  18.2214  18.9567

     occupation numbers 
     1.0000   1.0000   1.0000   1.0000   1.0000   1.0000   1.0000   1.0000
     1.0000   1.0000   1.0000   1.0000   1.0000   1.0000   1.0000   0.0000
     0.0000   0.0000   0.0000

          k = 0.5385 0.0444 0.1830 (  1117 PWs)   bands (ev):

   -47.9947 -47.9770 -22.0949 -22.0726 -21.9531 -21.8665 -21.7724 -21.6977
     5.6958  10.8308  11.9289  12.4195  14.7518  14.8450  15.2713  17.3453
    17.6272  18.3908  18.9555

     occupation numbers 
     1.0000   1.0000   1.0000   1.0000   1.0000   1.0000   1.0000   1.0000
     1.0000   1.0000   1.0000   1.0000   1.0000   1.0000   1.0000   0.0000
     0.0000   0.0000   0.0000

          k = 0.5385 0.0444 0.2745 (  1115 PWs)   bands (ev):

   -47.9891 -47.9825 -22.1044 -22.1027 -21.9366 -21.9009 -21.7196 -21.6919
     5.6978  10.8883  11.8397  12.3247  14.9940  15.1441  15.3681  16.8033
    17.5470  18.3925  18.6980

     occupation numbers 
     1.0000   1.0000   1.0000   1.0000   1.0000   1.0000   1.0000   1.0000
     1.0000   1.0000   1.0000   1.0000   1.0000   1.0000   1.0000   0.0000
     0.0000   0.0000   0.0000

     the Fermi energy is    16.1536 ev
     (compare with:    16.1193 eV, computed in scf)

     Writing output data file ./out/v2c.save/

     init_run     :      1.58s CPU      2.03s WALL (       1 calls)
     electrons    :    216.44s CPU    221.16s WALL (       1 calls)

     Called by init_run:
     wfcinit      :      0.00s CPU      0.00s WALL (       1 calls)
     wfcinit:atom :      0.05s CPU      0.11s WALL (     126 calls)
     wfcinit:wfcr :      7.12s CPU      7.22s WALL (     126 calls)
     potinit      :      0.22s CPU      0.33s WALL (       1 calls)
     hinit0       :      1.05s CPU      1.12s WALL (       1 calls)

     Called by electrons:
     c_bands      :    216.09s CPU    220.77s WALL (       1 calls)
     v_of_rho     :      0.06s CPU      0.13s WALL (       1 calls)
     v_h          :      0.00s CPU      0.01s WALL (       1 calls)
     v_xc         :      0.06s CPU      0.12s WALL (       1 calls)
     newd         :      0.27s CPU      0.52s WALL (       1 calls)
     PAW_pot      :      0.12s CPU      0.16s WALL (       1 calls)

     Called by c_bands:
     init_us_2    :      0.17s CPU      0.14s WALL (     126 calls)
     cegterg      :    207.78s CPU    212.02s WALL (     391 calls)

     Called by sum_band:

     Called by *egterg:
     cdiaghg      :      9.73s CPU      9.18s WALL (    7024 calls)
     cegterg:over :     20.58s CPU     21.24s WALL (    6898 calls)
     cegterg:upda :     13.31s CPU     14.09s WALL (    6898 calls)
     cegterg:last :     39.33s CPU     39.80s WALL (    3571 calls)
     h_psi        :    109.33s CPU    112.14s WALL (    7415 calls)
     s_psi        :     17.28s CPU     17.67s WALL (    7415 calls)
     g_psi        :      1.34s CPU      1.08s WALL (    6898 calls)

     Called by h_psi:
     h_psi:calbec :     15.95s CPU     16.36s WALL (    7415 calls)
     vloc_psi     :     75.03s CPU     77.11s WALL (    7415 calls)
     add_vuspsi   :     17.98s CPU     18.24s WALL (    7415 calls)

     General routines
     calbec       :     15.91s CPU     16.31s WALL (    7415 calls)
     fft          :      0.06s CPU      0.07s WALL (      13 calls)
     ffts         :      0.02s CPU      0.03s WALL (       1 calls)
     fftw         :     64.58s CPU     66.66s WALL (  133942 calls)
     interpolate  :      0.03s CPU      0.04s WALL (       1 calls)
     davcio       :      0.00s CPU      0.08s WALL (     252 calls)

     Parallel routines

     PAW routines
     PAW_pot      :      0.12s CPU      0.16s WALL (       1 calls)

     PWSCF        :   3m39.08s CPU   3m44.63s WALL


   This run was terminated on:  13:59:45  26May2024            

=------------------------------------------------------------------------------=
   JOB DONE.
=------------------------------------------------------------------------------=
