
     Program PWSCF v.6.7MaX starts on 31May2024 at 16: 6:24 

     This program is part of the open-source Quantum ESPRESSO suite
     for quantum simulation of materials; please cite
         "P. Giannozzi et al., J. Phys.:Condens. Matter 21 395502 (2009);
         "P. Giannozzi et al., J. Phys.:Condens. Matter 29 465901 (2017);
          URL http://www.quantum-espresso.org", 
     in publications or presentations arising from this work. More details at
     http://www.quantum-espresso.org/quote

     Parallel version (MPI), running on     1 processors

     MPI processes distributed on     1 nodes
     Waiting for input...
     Reading input from standard input
Warning: card &IONS ignored
Warning: card / ignored
Warning: card &CELL ignored
Warning: card CELL_DOFREE='IBRAV' ignored
Warning: card / ignored

     Current dimensions of program PWSCF are:
     Max number of different atomic species (ntypx) = 10
     Max number of k-points (npk) =  40000
     Max angular momentum in pseudopotentials (lmaxx) =  3

     Atomic positions and unit cell read from directory:
     ./outs/v2c.save/
     Atomic positions from file used, from input discarded

     file C.pbe-n-kjpaw_psl.1.0.0.UPF: wavefunction(s)  2S 2P renormalized

     Subspace diagonalization in iterative solution of the eigenvalue problem:
     a serial algorithm will be used

     Message from routine setup:
     using ibrav=0 with symmetry is DISCOURAGED, use correct ibrav instead

     G-vector sticks info
     --------------------
     sticks:   dense  smooth     PW     G-vecs:    dense   smooth      PW
     Sum         649     313    109                21181     7415    1315



     bravais-lattice index     =            0
     lattice parameter (alat)  =       5.4472  a.u.
     unit-cell volume          =     218.5677 (a.u.)^3
     number of atoms/cell      =            3
     number of atomic types    =            2
     number of electrons       =        30.00
     number of Kohn-Sham states=           30
     kinetic-energy cutoff     =      40.0000  Ry
     charge density cutoff     =     320.0000  Ry
     Exchange-correlation=  SLA  PW   PBX  PBC
                           (   1   4   3   4   0   0   0)

     celldm(1)=   5.447159  celldm(2)=   0.000000  celldm(3)=   0.000000
     celldm(4)=   0.000000  celldm(5)=   0.000000  celldm(6)=   0.000000

     crystal axes: (cart. coord. in units of alat)
               a(1) = (  -0.500000  -0.866025   0.000000 )  
               a(2) = (  -0.500000   0.866025   0.000000 )  
               a(3) = (   0.000000   0.000000  -1.561512 )  

     reciprocal axes: (cart. coord. in units 2 pi/alat)
               b(1) = ( -1.000000 -0.577350 -0.000000 )  
               b(2) = ( -1.000000  0.577350  0.000000 )  
               b(3) = ( -0.000000  0.000000 -0.640405 )  


     PseudoPot. # 1 for C  read from file:
     ./C.pbe-n-kjpaw_psl.1.0.0.UPF
     MD5 check sum: 5d2aebdfa2cae82b50a7e79e9516da0f
     Pseudo is Projector augmented-wave + core cor, Zval =  4.0
     Generated using "atomic" code by A. Dal Corso  v.5.1
     Shape of augmentation charge: PSQ
     Using radial grid of 1073 points,  4 beta functions with: 
                l(1) =   0
                l(2) =   0
                l(3) =   1
                l(4) =   1
     Q(r) pseudized with 0 coefficients 


     PseudoPot. # 2 for V  read from file:
     ./v_pbe_v1.4.uspp.F.UPF
     MD5 check sum: 22b79981416ebb76fdaf5b1b8640f6fb
     Pseudo is Ultrasoft + core correction, Zval = 13.0
     Generated by new atomic code, or converted to UPF format
     Using radial grid of  853 points,  6 beta functions with: 
                l(1) =   0
                l(2) =   0
                l(3) =   1
                l(4) =   1
                l(5) =   2
                l(6) =   2
     Q(r) pseudized with  8 coefficients,  rinner =    1.100   1.100   1.100
                                                       1.100   1.100

     atomic species   valence    mass     pseudopotential
        C              4.00    12.01070     C ( 1.00)
        V             13.00    50.94150     V ( 1.00)

     12 Sym. Ops., with inversion, found


                                    s                        frac. trans.

      isym =  1     identity                                     

 cryst.   s( 1) = (     1          0          0      )
                  (     0          1          0      )
                  (     0          0          1      )

 cart.    s( 1) = (  1.0000000  0.0000000  0.0000000 )
                  (  0.0000000  1.0000000  0.0000000 )
                  (  0.0000000  0.0000000  1.0000000 )


      isym =  2     180 deg rotation - cart. axis [1,0,0]        

 cryst.   s( 2) = (     0          1          0      )
                  (     1          0          0      )
                  (     0          0         -1      )

 cart.    s( 2) = (  1.0000000  0.0000000  0.0000000 )
                  (  0.0000000 -1.0000000  0.0000000 )
                  (  0.0000000  0.0000000 -1.0000000 )


      isym =  3     120 deg rotation - cryst. axis [0,0,1]       

 cryst.   s( 3) = (    -1         -1          0      )
                  (     1          0          0      )
                  (     0          0          1      )

 cart.    s( 3) = ( -0.5000000 -0.8660254  0.0000000 )
                  (  0.8660254 -0.5000000  0.0000000 )
                  (  0.0000000  0.0000000  1.0000000 )


      isym =  4     120 deg rotation - cryst. axis [0,0,-1]      

 cryst.   s( 4) = (     0          1          0      )
                  (    -1         -1          0      )
                  (     0          0          1      )

 cart.    s( 4) = ( -0.5000000  0.8660254  0.0000000 )
                  ( -0.8660254 -0.5000000  0.0000000 )
                  (  0.0000000  0.0000000  1.0000000 )


      isym =  5     180 deg rotation - cryst. axis [0,1,0]       

 cryst.   s( 5) = (    -1         -1          0      )
                  (     0          1          0      )
                  (     0          0         -1      )

 cart.    s( 5) = ( -0.5000000 -0.8660254  0.0000000 )
                  ( -0.8660254  0.5000000  0.0000000 )
                  (  0.0000000  0.0000000 -1.0000000 )


      isym =  6     180 deg rotation - cryst. axis [1,1,0]       

 cryst.   s( 6) = (     1          0          0      )
                  (    -1         -1          0      )
                  (     0          0         -1      )

 cart.    s( 6) = ( -0.5000000  0.8660254  0.0000000 )
                  (  0.8660254  0.5000000  0.0000000 )
                  (  0.0000000  0.0000000 -1.0000000 )


      isym =  7     inversion                                    

 cryst.   s( 7) = (    -1          0          0      )
                  (     0         -1          0      )
                  (     0          0         -1      )

 cart.    s( 7) = ( -1.0000000  0.0000000  0.0000000 )
                  (  0.0000000 -1.0000000  0.0000000 )
                  (  0.0000000  0.0000000 -1.0000000 )


      isym =  8     inv. 180 deg rotation - cart. axis [1,0,0]   

 cryst.   s( 8) = (     0         -1          0      )
                  (    -1          0          0      )
                  (     0          0          1      )

 cart.    s( 8) = ( -1.0000000  0.0000000  0.0000000 )
                  (  0.0000000  1.0000000  0.0000000 )
                  (  0.0000000  0.0000000  1.0000000 )


      isym =  9     inv. 120 deg rotation - cryst. axis [0,0,1]  

 cryst.   s( 9) = (     1          1          0      )
                  (    -1          0          0      )
                  (     0          0         -1      )

 cart.    s( 9) = (  0.5000000  0.8660254  0.0000000 )
                  ( -0.8660254  0.5000000  0.0000000 )
                  (  0.0000000  0.0000000 -1.0000000 )


      isym = 10     inv. 120 deg rotation - cryst. axis [0,0,-1] 

 cryst.   s(10) = (     0         -1          0      )
                  (     1          1          0      )
                  (     0          0         -1      )

 cart.    s(10) = (  0.5000000 -0.8660254  0.0000000 )
                  (  0.8660254  0.5000000  0.0000000 )
                  (  0.0000000  0.0000000 -1.0000000 )


      isym = 11     inv. 180 deg rotation - cryst. axis [0,1,0]  

 cryst.   s(11) = (     1          1          0      )
                  (     0         -1          0      )
                  (     0          0          1      )

 cart.    s(11) = (  0.5000000  0.8660254  0.0000000 )
                  (  0.8660254 -0.5000000  0.0000000 )
                  (  0.0000000  0.0000000  1.0000000 )


      isym = 12     inv. 180 deg rotation - cryst. axis [1,1,0]  

 cryst.   s(12) = (    -1          0          0      )
                  (     1          1          0      )
                  (     0          0          1      )

 cart.    s(12) = (  0.5000000 -0.8660254  0.0000000 )
                  ( -0.8660254 -0.5000000  0.0000000 )
                  (  0.0000000  0.0000000  1.0000000 )


   Cartesian axes

     site n.     atom                  positions (alat units)
         1           V   tau(   1) = (  -0.5000000   0.2886751  -0.3984485  )
         2           V   tau(   2) = (  -0.5000000  -0.2886751  -1.1630630  )
         3           C   tau(   3) = (   0.0000000   0.0000000   0.0000000  )

   Crystallographic axes

     site n.     atom                  positions (cryst. coord.)
         1           V   tau(   1) = (  0.3333333  0.6666667  0.2551685  )
         2           V   tau(   2) = (  0.6666667  0.3333333  0.7448315  )
         3           C   tau(   3) = ( -0.0000000  0.0000000  0.0000000  )

     number of k points=    91
                       cart. coord. in units 2pi/alat
        k(    1) = (  -0.5000000   0.2886751   0.0000000), wk =   0.0219780
        k(    2) = (  -0.4750000   0.2742414   0.0000000), wk =   0.0219780
        k(    3) = (  -0.4500000   0.2598076   0.0000000), wk =   0.0219780
        k(    4) = (  -0.4250000   0.2453739   0.0000000), wk =   0.0219780
        k(    5) = (  -0.4000000   0.2309401   0.0000000), wk =   0.0219780
        k(    6) = (  -0.3750000   0.2165064   0.0000000), wk =   0.0219780
        k(    7) = (  -0.3500000   0.2020726   0.0000000), wk =   0.0219780
        k(    8) = (  -0.3250000   0.1876388   0.0000000), wk =   0.0219780
        k(    9) = (  -0.3000000   0.1732051   0.0000000), wk =   0.0219780
        k(   10) = (  -0.2750000   0.1587713   0.0000000), wk =   0.0219780
        k(   11) = (  -0.2500000   0.1443376   0.0000000), wk =   0.0219780
        k(   12) = (  -0.2250000   0.1299038   0.0000000), wk =   0.0219780
        k(   13) = (  -0.2000000   0.1154701   0.0000000), wk =   0.0219780
        k(   14) = (  -0.1750000   0.1010363   0.0000000), wk =   0.0219780
        k(   15) = (  -0.1500000   0.0866025   0.0000000), wk =   0.0219780
        k(   16) = (  -0.1250000   0.0721688   0.0000000), wk =   0.0219780
        k(   17) = (  -0.1000000   0.0577350   0.0000000), wk =   0.0219780
        k(   18) = (  -0.0750000   0.0433013   0.0000000), wk =   0.0219780
        k(   19) = (  -0.0500000   0.0288675   0.0000000), wk =   0.0219780
        k(   20) = (  -0.0250000   0.0144338   0.0000000), wk =   0.0219780
        k(   21) = (  -0.0000000   0.0000000   0.0000000), wk =   0.0219780
        k(   22) = (   0.0166667   0.0096225   0.0106734), wk =   0.0219780
        k(   23) = (   0.0333333   0.0192450   0.0213468), wk =   0.0219780
        k(   24) = (   0.0500000   0.0288675   0.0320203), wk =   0.0219780
        k(   25) = (   0.0666667   0.0384900   0.0426937), wk =   0.0219780
        k(   26) = (   0.0833333   0.0481125   0.0533671), wk =   0.0219780
        k(   27) = (   0.1000000   0.0577350   0.0640405), wk =   0.0219780
        k(   28) = (   0.1166667   0.0673575   0.0747139), wk =   0.0219780
        k(   29) = (   0.1333333   0.0769800   0.0853874), wk =   0.0219780
        k(   30) = (   0.1500000   0.0866025   0.0960608), wk =   0.0219780
        k(   31) = (   0.1666667   0.0962250   0.1067342), wk =   0.0219780
        k(   32) = (   0.1833333   0.1058475   0.1174076), wk =   0.0219780
        k(   33) = (   0.2000000   0.1154701   0.1280810), wk =   0.0219780
        k(   34) = (   0.2166667   0.1250926   0.1387544), wk =   0.0219780
        k(   35) = (   0.2333333   0.1347151   0.1494279), wk =   0.0219780
        k(   36) = (   0.2500000   0.1443376   0.1601013), wk =   0.0219780
        k(   37) = (   0.2666667   0.1539601   0.1707747), wk =   0.0219780
        k(   38) = (   0.2833333   0.1635826   0.1814481), wk =   0.0219780
        k(   39) = (   0.3000000   0.1732051   0.1921215), wk =   0.0219780
        k(   40) = (   0.3166667   0.1828276   0.2027950), wk =   0.0219780
        k(   41) = (   0.3333333   0.1924501   0.2134684), wk =   0.0219780
        k(   42) = (   0.3500000   0.2020726   0.2241418), wk =   0.0219780
        k(   43) = (   0.3666667   0.2116951   0.2348152), wk =   0.0219780
        k(   44) = (   0.3833333   0.2213176   0.2454886), wk =   0.0219780
        k(   45) = (   0.4000000   0.2309401   0.2561621), wk =   0.0219780
        k(   46) = (   0.4166667   0.2405626   0.2668355), wk =   0.0219780
        k(   47) = (   0.4333333   0.2501851   0.2775089), wk =   0.0219780
        k(   48) = (   0.4500000   0.2598076   0.2881823), wk =   0.0219780
        k(   49) = (   0.4666667   0.2694301   0.2988557), wk =   0.0219780
        k(   50) = (   0.4833333   0.2790526   0.3095292), wk =   0.0219780
        k(   51) = (   0.5000000   0.2886751   0.3202026), wk =   0.0219780
        k(   52) = (   0.4625000   0.2958920   0.3121975), wk =   0.0219780
        k(   53) = (   0.4250000   0.3031089   0.3041924), wk =   0.0219780
        k(   54) = (   0.3875000   0.3103258   0.2961874), wk =   0.0219780
        k(   55) = (   0.3500000   0.3175426   0.2881823), wk =   0.0219780
        k(   56) = (   0.3125000   0.3247595   0.2801773), wk =   0.0219780
        k(   57) = (   0.2750000   0.3319764   0.2721722), wk =   0.0219780
        k(   58) = (   0.2375000   0.3391933   0.2641671), wk =   0.0219780
        k(   59) = (   0.2000000   0.3464102   0.2561621), wk =   0.0219780
        k(   60) = (   0.1625000   0.3536270   0.2481570), wk =   0.0219780
        k(   61) = (   0.1250000   0.3608439   0.2401519), wk =   0.0219780
        k(   62) = (   0.1208333   0.3488158   0.2321469), wk =   0.0219780
        k(   63) = (   0.1166667   0.3367877   0.2241418), wk =   0.0219780
        k(   64) = (   0.1125000   0.3247595   0.2161367), wk =   0.0219780
        k(   65) = (   0.1083333   0.3127314   0.2081317), wk =   0.0219780
        k(   66) = (   0.1041667   0.3007033   0.2001266), wk =   0.0219780
        k(   67) = (   0.1000000   0.2886751   0.1921215), wk =   0.0219780
        k(   68) = (   0.0958333   0.2766470   0.1841165), wk =   0.0219780
        k(   69) = (   0.0916667   0.2646189   0.1761114), wk =   0.0219780
        k(   70) = (   0.0875000   0.2525907   0.1681064), wk =   0.0219780
        k(   71) = (   0.0833333   0.2405626   0.1601013), wk =   0.0219780
        k(   72) = (   0.0791667   0.2285345   0.1520962), wk =   0.0219780
        k(   73) = (   0.0750000   0.2165064   0.1440912), wk =   0.0219780
        k(   74) = (   0.0708333   0.2044782   0.1360861), wk =   0.0219780
        k(   75) = (   0.0666667   0.1924501   0.1280810), wk =   0.0219780
        k(   76) = (   0.0625000   0.1804220   0.1200760), wk =   0.0219780
        k(   77) = (   0.0583333   0.1683938   0.1120709), wk =   0.0219780
        k(   78) = (   0.0541667   0.1563657   0.1040658), wk =   0.0219780
        k(   79) = (   0.0500000   0.1443376   0.0960608), wk =   0.0219780
        k(   80) = (   0.0458333   0.1323094   0.0880557), wk =   0.0219780
        k(   81) = (   0.0416667   0.1202813   0.0800506), wk =   0.0219780
        k(   82) = (   0.0375000   0.1082532   0.0720456), wk =   0.0219780
        k(   83) = (   0.0333333   0.0962250   0.0640405), wk =   0.0219780
        k(   84) = (   0.0291667   0.0841969   0.0560355), wk =   0.0219780
        k(   85) = (   0.0250000   0.0721688   0.0480304), wk =   0.0219780
        k(   86) = (   0.0208333   0.0601407   0.0400253), wk =   0.0219780
        k(   87) = (   0.0166667   0.0481125   0.0320203), wk =   0.0219780
        k(   88) = (   0.0125000   0.0360844   0.0240152), wk =   0.0219780
        k(   89) = (   0.0083333   0.0240563   0.0160101), wk =   0.0219780
        k(   90) = (   0.0041667   0.0120281   0.0080051), wk =   0.0219780
        k(   91) = (  -0.0000000   0.0000000   0.0000000), wk =   0.0219780

                       cryst. coord.
        k(    1) = (   0.0000000   0.5000000   0.0000000), wk =   0.0219780
        k(    2) = (   0.0000000   0.4750000   0.0000000), wk =   0.0219780
        k(    3) = (   0.0000000   0.4500000   0.0000000), wk =   0.0219780
        k(    4) = (   0.0000000   0.4250000   0.0000000), wk =   0.0219780
        k(    5) = (   0.0000000   0.4000000   0.0000000), wk =   0.0219780
        k(    6) = (   0.0000000   0.3750000   0.0000000), wk =   0.0219780
        k(    7) = (   0.0000000   0.3500000   0.0000000), wk =   0.0219780
        k(    8) = (   0.0000000   0.3250000   0.0000000), wk =   0.0219780
        k(    9) = (   0.0000000   0.3000000   0.0000000), wk =   0.0219780
        k(   10) = (   0.0000000   0.2750000   0.0000000), wk =   0.0219780
        k(   11) = (   0.0000000   0.2500000   0.0000000), wk =   0.0219780
        k(   12) = (   0.0000000   0.2250000   0.0000000), wk =   0.0219780
        k(   13) = (   0.0000000   0.2000000   0.0000000), wk =   0.0219780
        k(   14) = (   0.0000000   0.1750000   0.0000000), wk =   0.0219780
        k(   15) = (   0.0000000   0.1500000   0.0000000), wk =   0.0219780
        k(   16) = (   0.0000000   0.1250000   0.0000000), wk =   0.0219780
        k(   17) = (   0.0000000   0.1000000   0.0000000), wk =   0.0219780
        k(   18) = (   0.0000000   0.0750000   0.0000000), wk =   0.0219780
        k(   19) = (   0.0000000   0.0500000   0.0000000), wk =   0.0219780
        k(   20) = (   0.0000000   0.0250000   0.0000000), wk =   0.0219780
        k(   21) = (   0.0000000   0.0000000   0.0000000), wk =   0.0219780
        k(   22) = (  -0.0166667   0.0000000  -0.0166667), wk =   0.0219780
        k(   23) = (  -0.0333333   0.0000000  -0.0333333), wk =   0.0219780
        k(   24) = (  -0.0500000  -0.0000000  -0.0500000), wk =   0.0219780
        k(   25) = (  -0.0666667   0.0000000  -0.0666667), wk =   0.0219780
        k(   26) = (  -0.0833333  -0.0000000  -0.0833333), wk =   0.0219780
        k(   27) = (  -0.1000000  -0.0000000  -0.1000000), wk =   0.0219780
        k(   28) = (  -0.1166667  -0.0000000  -0.1166667), wk =   0.0219780
        k(   29) = (  -0.1333333   0.0000000  -0.1333333), wk =   0.0219780
        k(   30) = (  -0.1500000  -0.0000000  -0.1500000), wk =   0.0219780
        k(   31) = (  -0.1666667  -0.0000000  -0.1666667), wk =   0.0219780
        k(   32) = (  -0.1833333  -0.0000000  -0.1833333), wk =   0.0219780
        k(   33) = (  -0.2000000  -0.0000000  -0.2000000), wk =   0.0219780
        k(   34) = (  -0.2166667  -0.0000000  -0.2166667), wk =   0.0219780
        k(   35) = (  -0.2333333  -0.0000000  -0.2333333), wk =   0.0219780
        k(   36) = (  -0.2500000  -0.0000000  -0.2500000), wk =   0.0219780
        k(   37) = (  -0.2666667   0.0000000  -0.2666667), wk =   0.0219780
        k(   38) = (  -0.2833333  -0.0000000  -0.2833333), wk =   0.0219780
        k(   39) = (  -0.3000000  -0.0000000  -0.3000000), wk =   0.0219780
        k(   40) = (  -0.3166667  -0.0000000  -0.3166667), wk =   0.0219780
        k(   41) = (  -0.3333333  -0.0000000  -0.3333333), wk =   0.0219780
        k(   42) = (  -0.3500000  -0.0000000  -0.3500000), wk =   0.0219780
        k(   43) = (  -0.3666667  -0.0000000  -0.3666667), wk =   0.0219780
        k(   44) = (  -0.3833333  -0.0000000  -0.3833333), wk =   0.0219780
        k(   45) = (  -0.4000000  -0.0000000  -0.4000000), wk =   0.0219780
        k(   46) = (  -0.4166667  -0.0000000  -0.4166667), wk =   0.0219780
        k(   47) = (  -0.4333333  -0.0000000  -0.4333333), wk =   0.0219780
        k(   48) = (  -0.4500000  -0.0000000  -0.4500000), wk =   0.0219780
        k(   49) = (  -0.4666667  -0.0000000  -0.4666667), wk =   0.0219780
        k(   50) = (  -0.4833333  -0.0000000  -0.4833333), wk =   0.0219780
        k(   51) = (  -0.5000000  -0.0000000  -0.5000000), wk =   0.0219780
        k(   52) = (  -0.4875000   0.0250000  -0.4875000), wk =   0.0219780
        k(   53) = (  -0.4750000   0.0500000  -0.4750000), wk =   0.0219780
        k(   54) = (  -0.4625000   0.0750000  -0.4625000), wk =   0.0219780
        k(   55) = (  -0.4500000   0.1000000  -0.4500000), wk =   0.0219780
        k(   56) = (  -0.4375000   0.1250000  -0.4375000), wk =   0.0219780
        k(   57) = (  -0.4250000   0.1500000  -0.4250000), wk =   0.0219780
        k(   58) = (  -0.4125000   0.1750000  -0.4125000), wk =   0.0219780
        k(   59) = (  -0.4000000   0.2000000  -0.4000000), wk =   0.0219780
        k(   60) = (  -0.3875000   0.2250000  -0.3875000), wk =   0.0219780
        k(   61) = (  -0.3750000   0.2500000  -0.3750000), wk =   0.0219780
        k(   62) = (  -0.3625000   0.2416667  -0.3625000), wk =   0.0219780
        k(   63) = (  -0.3500000   0.2333333  -0.3500000), wk =   0.0219780
        k(   64) = (  -0.3375000   0.2250000  -0.3375000), wk =   0.0219780
        k(   65) = (  -0.3250000   0.2166667  -0.3250000), wk =   0.0219780
        k(   66) = (  -0.3125000   0.2083333  -0.3125000), wk =   0.0219780
        k(   67) = (  -0.3000000   0.2000000  -0.3000000), wk =   0.0219780
        k(   68) = (  -0.2875000   0.1916667  -0.2875000), wk =   0.0219780
        k(   69) = (  -0.2750000   0.1833333  -0.2750000), wk =   0.0219780
        k(   70) = (  -0.2625000   0.1750000  -0.2625000), wk =   0.0219780
        k(   71) = (  -0.2500000   0.1666667  -0.2500000), wk =   0.0219780
        k(   72) = (  -0.2375000   0.1583333  -0.2375000), wk =   0.0219780
        k(   73) = (  -0.2250000   0.1500000  -0.2250000), wk =   0.0219780
        k(   74) = (  -0.2125000   0.1416667  -0.2125000), wk =   0.0219780
        k(   75) = (  -0.2000000   0.1333333  -0.2000000), wk =   0.0219780
        k(   76) = (  -0.1875000   0.1250000  -0.1875000), wk =   0.0219780
        k(   77) = (  -0.1750000   0.1166667  -0.1750000), wk =   0.0219780
        k(   78) = (  -0.1625000   0.1083333  -0.1625000), wk =   0.0219780
        k(   79) = (  -0.1500000   0.1000000  -0.1500000), wk =   0.0219780
        k(   80) = (  -0.1375000   0.0916667  -0.1375000), wk =   0.0219780
        k(   81) = (  -0.1250000   0.0833333  -0.1250000), wk =   0.0219780
        k(   82) = (  -0.1125000   0.0750000  -0.1125000), wk =   0.0219780
        k(   83) = (  -0.1000000   0.0666667  -0.1000000), wk =   0.0219780
        k(   84) = (  -0.0875000   0.0583333  -0.0875000), wk =   0.0219780
        k(   85) = (  -0.0750000   0.0500000  -0.0750000), wk =   0.0219780
        k(   86) = (  -0.0625000   0.0416667  -0.0625000), wk =   0.0219780
        k(   87) = (  -0.0500000   0.0333333  -0.0500000), wk =   0.0219780
        k(   88) = (  -0.0375000   0.0250000  -0.0375000), wk =   0.0219780
        k(   89) = (  -0.0250000   0.0166667  -0.0250000), wk =   0.0219780
        k(   90) = (  -0.0125000   0.0083333  -0.0125000), wk =   0.0219780
        k(   91) = (   0.0000000   0.0000000   0.0000000), wk =   0.0219780

     Dense  grid:    21181 G-vectors     FFT dimensions: (  32,  32,  50)

     Smooth grid:     7415 G-vectors     FFT dimensions: (  24,  24,  36)

     Dynamical RAM for                 wfc:       0.43 MB

     Dynamical RAM for     wfc (w. buffer):       0.43 MB

     Dynamical RAM for           str. fact:       0.65 MB

     Dynamical RAM for           local pot:       0.00 MB

     Dynamical RAM for          nlocal pot:       0.63 MB

     Dynamical RAM for                qrad:       2.87 MB

     Dynamical RAM for          rho,v,vnew:       2.14 MB

     Dynamical RAM for           G-vectors:       1.27 MB

     Dynamical RAM for          h,s,v(r/c):       0.16 MB

     Dynamical RAM for          <psi|beta>:       0.02 MB

     Dynamical RAM for                 psi:       0.86 MB

     Dynamical RAM for                hpsi:       0.86 MB

     Dynamical RAM for                spsi:       0.86 MB

     Dynamical RAM for      wfcinit/wfcrot:       0.88 MB

     Dynamical RAM for           addusdens:      60.76 MB

     Estimated static dynamical RAM per process >      10.90 MB

     Estimated max dynamical RAM per process >      71.67 MB

     Check: negative core charge=   -0.000009

     The potential is recalculated from file :
     ./outs/v2c.save/charge-density


     negative rho (up, down):  2.467E-03 0.000E+00
     Starting wfcs are   24 randomized atomic wfcs +    6 random wfcs
     Checking if some PAW data can be deallocated... 

     Band Structure Calculation
     Davidson diagonalization with overlap

     Computing kpt #:     1  of    91
     total cpu time spent up to now is        1.8 secs

     Computing kpt #:     2  of    91
     total cpu time spent up to now is        2.5 secs

     Computing kpt #:     3  of    91
     total cpu time spent up to now is        4.1 secs

     Computing kpt #:     4  of    91
     total cpu time spent up to now is        5.6 secs

     Computing kpt #:     5  of    91
     total cpu time spent up to now is        6.7 secs

     Computing kpt #:     6  of    91
     total cpu time spent up to now is        7.5 secs

     Computing kpt #:     7  of    91
     total cpu time spent up to now is        8.3 secs

     Computing kpt #:     8  of    91
     total cpu time spent up to now is        9.0 secs

     Computing kpt #:     9  of    91
     total cpu time spent up to now is        9.8 secs

     Computing kpt #:    10  of    91
     total cpu time spent up to now is       10.5 secs

     Computing kpt #:    11  of    91
     total cpu time spent up to now is       11.3 secs

     Computing kpt #:    12  of    91
     total cpu time spent up to now is       12.1 secs

     Computing kpt #:    13  of    91
     total cpu time spent up to now is       12.8 secs

     Computing kpt #:    14  of    91
     total cpu time spent up to now is       13.5 secs

     Computing kpt #:    15  of    91
     total cpu time spent up to now is       14.2 secs

     Computing kpt #:    16  of    91
     total cpu time spent up to now is       15.0 secs

     Computing kpt #:    17  of    91
     total cpu time spent up to now is       15.9 secs

     Computing kpt #:    18  of    91
     total cpu time spent up to now is       16.6 secs

     Computing kpt #:    19  of    91
     total cpu time spent up to now is       17.3 secs

     Computing kpt #:    20  of    91
     total cpu time spent up to now is       18.1 secs

     Computing kpt #:    21  of    91
     total cpu time spent up to now is       18.9 secs

     Computing kpt #:    22  of    91
     total cpu time spent up to now is       20.5 secs

     Computing kpt #:    23  of    91
     total cpu time spent up to now is       21.4 secs

     Computing kpt #:    24  of    91
     total cpu time spent up to now is       22.7 secs

     Computing kpt #:    25  of    91
     total cpu time spent up to now is       23.9 secs

     Computing kpt #:    26  of    91
     total cpu time spent up to now is       25.2 secs

     Computing kpt #:    27  of    91
     total cpu time spent up to now is       27.2 secs

     Computing kpt #:    28  of    91
     total cpu time spent up to now is       28.7 secs

     Computing kpt #:    29  of    91
     total cpu time spent up to now is       30.1 secs

     Computing kpt #:    30  of    91
     total cpu time spent up to now is       31.5 secs

     Computing kpt #:    31  of    91
     total cpu time spent up to now is       32.8 secs

     Computing kpt #:    32  of    91
     total cpu time spent up to now is       34.2 secs

     Computing kpt #:    33  of    91
     total cpu time spent up to now is       35.8 secs

     Computing kpt #:    34  of    91
     total cpu time spent up to now is       37.4 secs

     Computing kpt #:    35  of    91
     total cpu time spent up to now is       38.6 secs

     Computing kpt #:    36  of    91
     total cpu time spent up to now is       40.2 secs

     Computing kpt #:    37  of    91
     total cpu time spent up to now is       41.5 secs

     Computing kpt #:    38  of    91
     total cpu time spent up to now is       42.8 secs

     Computing kpt #:    39  of    91
     total cpu time spent up to now is       44.2 secs

     Computing kpt #:    40  of    91
     total cpu time spent up to now is       45.3 secs

     Computing kpt #:    41  of    91
     total cpu time spent up to now is       46.3 secs

     Computing kpt #:    42  of    91
     total cpu time spent up to now is       47.5 secs

     Computing kpt #:    43  of    91
     total cpu time spent up to now is       48.9 secs

     Computing kpt #:    44  of    91
     total cpu time spent up to now is       50.0 secs

     Computing kpt #:    45  of    91
     total cpu time spent up to now is       51.1 secs

     Computing kpt #:    46  of    91
     total cpu time spent up to now is       52.4 secs

     Computing kpt #:    47  of    91
     total cpu time spent up to now is       53.6 secs

     Computing kpt #:    48  of    91
     total cpu time spent up to now is       54.6 secs

     Computing kpt #:    49  of    91
     total cpu time spent up to now is       56.0 secs

     Computing kpt #:    50  of    91
     total cpu time spent up to now is       57.0 secs

     Computing kpt #:    51  of    91
     total cpu time spent up to now is       57.9 secs

     Computing kpt #:    52  of    91
     total cpu time spent up to now is       59.3 secs

     Computing kpt #:    53  of    91
     total cpu time spent up to now is       60.5 secs

     Computing kpt #:    54  of    91
     total cpu time spent up to now is       61.7 secs

     Computing kpt #:    55  of    91
     total cpu time spent up to now is       63.0 secs

     Computing kpt #:    56  of    91
     total cpu time spent up to now is       64.2 secs

     Computing kpt #:    57  of    91
     total cpu time spent up to now is       65.3 secs

     Computing kpt #:    58  of    91
     total cpu time spent up to now is       66.8 secs

     Computing kpt #:    59  of    91
     total cpu time spent up to now is       68.0 secs

     Computing kpt #:    60  of    91
     total cpu time spent up to now is       69.0 secs

     Computing kpt #:    61  of    91
     total cpu time spent up to now is       70.5 secs

     Computing kpt #:    62  of    91
     total cpu time spent up to now is       71.7 secs

     Computing kpt #:    63  of    91
     total cpu time spent up to now is       73.2 secs

     Computing kpt #:    64  of    91
     total cpu time spent up to now is       74.7 secs

     Computing kpt #:    65  of    91
     total cpu time spent up to now is       75.6 secs

     Computing kpt #:    66  of    91
     total cpu time spent up to now is       76.5 secs

     Computing kpt #:    67  of    91
     total cpu time spent up to now is       77.3 secs

     Computing kpt #:    68  of    91
     total cpu time spent up to now is       77.9 secs

     Computing kpt #:    69  of    91
     total cpu time spent up to now is       78.5 secs

     Computing kpt #:    70  of    91
     total cpu time spent up to now is       79.1 secs

     Computing kpt #:    71  of    91
     total cpu time spent up to now is       79.7 secs

     Computing kpt #:    72  of    91
     total cpu time spent up to now is       80.4 secs

     Computing kpt #:    73  of    91
     total cpu time spent up to now is       81.0 secs

     Computing kpt #:    74  of    91
     total cpu time spent up to now is       81.6 secs

     Computing kpt #:    75  of    91
     total cpu time spent up to now is       82.2 secs

     Computing kpt #:    76  of    91
     total cpu time spent up to now is       83.0 secs

     Computing kpt #:    77  of    91
     total cpu time spent up to now is       84.0 secs

     Computing kpt #:    78  of    91
     total cpu time spent up to now is       85.2 secs

     Computing kpt #:    79  of    91
     total cpu time spent up to now is       86.3 secs

     Computing kpt #:    80  of    91
     total cpu time spent up to now is       87.5 secs

     Computing kpt #:    81  of    91
     total cpu time spent up to now is       88.5 secs

     Computing kpt #:    82  of    91
     total cpu time spent up to now is       89.4 secs

     Computing kpt #:    83  of    91
     total cpu time spent up to now is       90.2 secs

     Computing kpt #:    84  of    91
     total cpu time spent up to now is       90.8 secs

     Computing kpt #:    85  of    91
     total cpu time spent up to now is       91.4 secs

     Computing kpt #:    86  of    91
     total cpu time spent up to now is       92.1 secs

     Computing kpt #:    87  of    91
     total cpu time spent up to now is       92.7 secs

     Computing kpt #:    88  of    91
     total cpu time spent up to now is       93.4 secs

     Computing kpt #:    89  of    91
     total cpu time spent up to now is       94.0 secs

     Computing kpt #:    90  of    91
     total cpu time spent up to now is       94.7 secs

     Computing kpt #:    91  of    91
     total cpu time spent up to now is       95.4 secs

     ethr =  2.00E-12,  avg # of iterations = 28.3

     total cpu time spent up to now is       95.4 secs

     End of band structure calculation

          k =-0.5000 0.2887 0.0000 (   916 PWs)   bands (ev):

   -48.0021 -47.9657 -22.1393 -22.0241 -21.9124 -21.8786 -21.7201 -21.7154
     5.6327  10.2116  12.4100  12.9012  13.4358  14.7126  16.0866  18.1170
    18.3877  18.6755  18.9232  19.1935  19.3251  20.3308  23.9081  24.3284
    28.0400  30.1082  31.4892  32.9366  33.7454  33.9453

          k =-0.4750 0.2742 0.0000 (   912 PWs)   bands (ev):

   -48.0029 -47.9655 -22.1370 -22.0221 -21.9153 -21.8779 -21.7198 -21.7132
     5.6185  10.2256  12.4055  12.9063  13.4454  14.7103  16.0763  18.0840
    18.3739  18.6666  18.8229  19.1723  19.4523  20.3694  23.6920  24.5462
    28.0688  30.1341  31.4935  32.9361  33.7418  33.9808

          k =-0.4500 0.2598 0.0000 (   914 PWs)   bands (ev):

   -48.0051 -47.9652 -22.1300 -22.0159 -21.9235 -21.8758 -21.7188 -21.7071
     5.5762  10.2674  12.3914  12.9210  13.4739  14.7042  16.0468  17.9902
    18.3317  18.6301  18.6451  19.1701  19.6635  20.4763  23.3489  24.8964
    28.1506  30.2081  31.5100  32.9351  33.7306  34.0863

          k =-0.4250 0.2454 0.0000 (   926 PWs)   bands (ev):

   -48.0087 -47.9648 -22.1186 -22.0059 -21.9361 -21.8724 -21.7172 -21.6979
     5.5077  10.3359  12.3654  12.9450  13.5208  14.6958  16.0023  17.8493
    18.2606  18.4245  18.6188  19.1793  19.8833  20.6320  22.9928  25.2708
    28.2724  30.3162  31.5519  32.9347  33.7116  34.2586

          k =-0.4000 0.2309 0.0000 (   928 PWs)   bands (ev):

   -48.0133 -47.9645 -22.1030 -21.9922 -21.9518 -21.8677 -21.7149 -21.6868
     5.4156  10.4297  12.3246  12.9775  13.5851  14.6882  15.9494  17.6782
    18.1633  18.2240  18.5908  19.1929  20.0956  20.8171  22.6391  25.6624
    28.4156  30.4287  31.6460  32.9366  33.6858  34.4933

          k =-0.3750 0.2165 0.0000 (   928 PWs)   bands (ev):

   -48.0186 -47.9644 -22.0838 -21.9752 -21.9693 -21.8619 -21.7122 -21.6748
     5.3033  10.5471  12.2654  13.0174  13.6650  14.6850  15.8965  17.4920
    18.0331  18.0443  18.5603  19.2062  20.2920  21.0166  22.2963  26.0733
    28.5607  30.4999  31.8271  32.9418  33.6601  34.7854

          k =-0.3500 0.2021 0.0000 (   940 PWs)   bands (ev):

   -48.0246 -47.9647 -22.0614 -21.9882 -21.9548 -21.8550 -21.7090 -21.6624
     5.1745  10.6860  12.1850  13.0631  13.7579  14.6910  15.8519  17.3027
    17.8525  17.9084  18.5257  19.2134  20.4644  21.2194  21.9754  26.5050
    28.6919  30.4919  32.1094  32.9517  33.6535  34.9764

          k =-0.3250 0.1876 0.0000 (   940 PWs)   bands (ev):

   -48.0310 -47.9653 -22.0381 -22.0059 -21.9321 -21.8472 -21.7055 -21.6502
     5.0332  10.8444  12.0822  13.1130  13.8597  14.7117  15.8227  17.1193
    17.6818  17.7602  18.4857  19.2074  20.5979  21.4185  21.6966  26.9548
    28.8025  30.3944  32.4588  32.9677  33.7084  34.9449

          k =-0.3000 0.1732 0.0000 (   938 PWs)   bands (ev):

   -48.0377 -47.9662 -22.0337 -22.0025 -21.9073 -21.8386 -21.7018 -21.6384
     4.8836  11.0201  11.9579  13.1646  13.9646  14.7531  15.8137  16.9488
    17.5204  17.6046  18.4392  19.1792  20.6582  21.5019  21.6084  27.4111
    28.8993  30.2133  32.7966  32.9913  33.8961  34.9722

          k =-0.2750 0.1588 0.0000 (   940 PWs)   bands (ev):

   -48.0445 -47.9673 -22.0511 -21.9757 -21.8810 -21.8295 -21.6980 -21.6274
     4.7295  11.2106  11.8159  13.2157  14.0654  14.8210  15.8269  16.7970
    17.3676  17.4457  18.3855  19.1198  20.6020  21.4434  21.7851  27.8403
    29.0147  29.9606  33.0238  33.0510  34.2695  35.0659

          k =-0.2500 0.1443 0.0000 (   941 PWs)   bands (ev):

   -48.0513 -47.9687 -22.0698 -21.9462 -21.8538 -21.8201 -21.6941 -21.6172
     4.5749  11.4093  11.6660  13.2636  14.1547  14.9196  15.8619  16.6683
    17.2228  17.2879  18.3240  19.0222  20.4549  21.5035  21.9461  28.1670
    29.2207  29.6573  33.0665  33.2386  34.7627  35.2531

          k =-0.2250 0.1299 0.0000 (   939 PWs)   bands (ev):

   -48.0578 -47.9703 -22.0878 -21.9164 -21.8264 -21.8105 -21.6905 -21.6079
     4.4234  11.4716  11.6566  13.3058  14.2276  15.0493  15.9167  16.5662
    17.0856  17.1348  18.2545  18.8848  20.2812  21.6210  22.0896  28.3256
    29.2753  29.6320  33.1202  33.4076  35.1804  35.6485

          k =-0.2000 0.1155 0.0000 (   935 PWs)   bands (ev):

   -48.0641 -47.9719 -22.1049 -21.8873 -21.8010 -21.7994 -21.6870 -21.5997
     4.2783  11.3189  11.8708  13.3405  14.2821  15.2057  15.9880  16.4927
    16.9556  16.9901  18.1771  18.7136  20.1115  21.7621  22.2149  28.3585
    28.9189  30.1207  33.1849  33.5834  35.4563  36.2442

          k =-0.1750 0.1010 0.0000 (   933 PWs)   bands (ev):

   -48.0700 -47.9736 -22.1205 -21.8596 -21.7918 -21.7736 -21.6839 -21.5924
     4.1428  11.1616  12.1014  13.3665  14.3182  15.3814  16.0714  16.4480
    16.8328  16.8571  18.0925  18.5210  19.9517  21.9125  22.3218  28.3287
    28.5523  30.6742  33.2597  33.7780  35.6816  36.8539

          k =-0.1500 0.0866 0.0000 (   935 PWs)   bands (ev):

   -48.0753 -47.9752 -22.1345 -21.8340 -21.7831 -21.7495 -21.6811 -21.5862
     4.0196  11.0137  12.3364  13.3836  14.3357  15.5678  16.1614  16.4299
    16.7182  16.7394  18.0019  18.3212  19.7998  22.0640  22.4107  28.1656
    28.3054  31.2420  33.3423  34.0005  35.8295  37.3548

          k =-0.1250 0.0722 0.0000 (   933 PWs)   bands (ev):

   -48.0800 -47.9767 -22.1467 -21.8111 -21.7752 -21.7279 -21.6789 -21.5810
     3.9111  10.8810  12.5709  13.3928  14.3338  15.7560  16.2495  16.4314
    16.6166  16.6428  17.9077  18.1276  19.6544  22.2108  22.4827  27.8386
    28.2396  31.7954  33.4289  34.2560  35.8417  37.7251

          k =-0.1000 0.0577 0.0000 (   945 PWs)   bands (ev):

   -48.0840 -47.9780 -22.1569 -21.7916 -21.7683 -21.7092 -21.6770 -21.5768
     3.8194  10.7674  12.7990  13.3958  14.3114  15.9362  16.3162  16.4346
    16.5445  16.5815  17.8132  17.9508  19.5174  22.3460  22.5388  27.5402
    28.1847  32.3124  33.5142  34.5269  35.7423  38.0457

          k =-0.0750 0.0433 0.0000 (   949 PWs)   bands (ev):

   -48.0872 -47.9791 -22.1649 -21.7759 -21.7627 -21.6942 -21.6757 -21.5735
     3.7462  10.6760  13.0128  13.3949  14.2690  16.0976  16.3212  16.4122
    16.5406  16.5765  17.7239  17.7992  19.3945  22.4628  22.5808  27.2903
    28.1386  32.7779  33.5918  34.7090  35.7013  37.9619

          k =-0.0500 0.0289 0.0000 (   953 PWs)   bands (ev):

   -48.0895 -47.9799 -22.1708 -21.7644 -21.7585 -21.6831 -21.6748 -21.5713
     3.6930  10.6092  13.1994  13.3924  14.2117  16.2274  16.2804  16.3770
    16.5872  16.6058  17.6477  17.6805  19.2950  22.5539  22.6097  27.1011
    28.1038  33.1870  33.6543  34.6396  35.9257  37.8915

          k =-0.0250 0.0144 0.0000 (   953 PWs)   bands (ev):

   -48.0909 -47.9804 -22.1743 -21.7574 -21.7559 -21.6763 -21.6742 -21.5699
     3.6607  10.5685  13.3363  13.3901  14.1553  16.2442  16.3126  16.3514
    16.6307  16.6355  17.5949  17.6030  19.2293  22.6121  22.6266  26.9827
    28.0823  33.5305  33.6952  34.4166  36.3046  37.8455

          k =-0.0000 0.0000 0.0000 (   953 PWs)   bands (ev):

   -48.0913 -47.9806 -22.1755 -21.7550 -21.7550 -21.6740 -21.6740 -21.5695
     3.6499  10.5548  13.3892  13.3892  14.1299  16.2308  16.3424  16.3424
    16.6475  16.6475  17.5757  17.5757  19.2062  22.6321  22.6321  26.9424
    28.0750  33.7095  33.7095  34.2668  36.5250  37.8296

          k = 0.0167 0.0096 0.0107 (   953 PWs)   bands (ev):

   -48.0911 -47.9806 -22.1746 -21.7560 -21.7554 -21.6752 -21.6741 -21.5701
     3.6556  10.5582  13.3661  13.3870  14.1434  16.2346  16.3295  16.3453
    16.6333  16.6497  17.5844  17.5927  19.2206  22.6222  22.6260  26.9480
    28.0892  33.6104  33.7177  34.3302  36.4278  37.8234

          k = 0.0333 0.0192 0.0213 (   955 PWs)   bands (ev):

   -48.0902 -47.9806 -22.1718 -21.7588 -21.7565 -21.6785 -21.6744 -21.5719
     3.6726  10.5684  13.3021  13.3808  14.1790  16.2358  16.3022  16.3540
    16.5942  16.6564  17.6097  17.6401  19.2627  22.5929  22.6081  26.9646
    28.1314  33.3926  33.7419  34.4255  36.2419  37.8053

          k = 0.0500 0.0289 0.0320 (   951 PWs)   bands (ev):

   -48.0888 -47.9806 -22.1673 -21.7635 -21.7583 -21.6842 -21.6749 -21.5749
     3.7008  10.5855  13.2079  13.3706  14.2266  16.1898  16.3076  16.3688
    16.5383  16.6687  17.6499  17.7100  19.3295  22.5452  22.5792  26.9917
    28.2010  33.1243  33.7806  34.4457  36.1115  37.7771

          k = 0.0667 0.0385 0.0427 (   947 PWs)   bands (ev):

   -48.0869 -47.9806 -22.1610 -21.7700 -21.7608 -21.6922 -21.6756 -21.5787
     3.7398  10.6092  13.0931  13.3567  14.2771  16.1040  16.3383  16.3899
    16.4771  16.6874  17.7023  17.7942  19.4166  22.4809  22.5405  27.0285
    28.2969  32.8227  33.8308  34.3509  36.0995  37.7409

          k = 0.0833 0.0481 0.0534 (   945 PWs)   bands (ev):

   -48.0844 -47.9806 -22.1532 -21.7780 -21.7638 -21.7027 -21.6767 -21.5833
     3.7892  10.6392  12.9648  13.3397  14.3246  16.0002  16.3463  16.4176
    16.4473  16.7136  17.7640  17.8864  19.5191  22.4021  22.4941  27.0741
    28.4171  32.4904  33.8887  34.1707  36.1808  37.6992

          k = 0.1000 0.0577 0.0640 (   941 PWs)   bands (ev):

   -48.0814 -47.9806 -22.1438 -21.7876 -21.7673 -21.7155 -21.6780 -21.5885
     3.8482  10.6754  12.8278  13.3200  14.3655  15.8864  16.2907  16.4525
    16.4899  16.7478  17.8315  17.9817  19.6323  22.3119  22.4422  27.1278
    28.5589  32.1284  33.9491  33.9574  36.2921  37.6547

          k = 0.1167 0.0674 0.0747 (   944 PWs)   bands (ev):

   -48.0780 -47.9807 -22.1333 -21.7984 -21.7712 -21.7307 -21.6798 -21.5941
     3.9163  10.7172  12.6857  13.2983  14.3975  15.7679  16.2191  16.4949
    16.5585  16.7902  17.9014  18.0766  19.7515  22.2133  22.3875  27.1888
    28.7188  31.7403  33.7446  34.0052  36.3741  37.4422

          k = 0.1333 0.0770 0.0854 (   941 PWs)   bands (ev):

   -48.0742 -47.9807 -22.1217 -21.8103 -21.7754 -21.7480 -21.6819 -21.5999
     3.9927  10.7637  12.5418  13.2754  14.4191  15.6489  16.1483  16.5451
    16.6375  16.8408  17.9702  18.1683  19.8725  22.1102  22.3333  27.2564
    28.8921  31.3326  33.5462  34.0489  36.3762  37.1126

          k = 0.1500 0.0866 0.0961 (   941 PWs)   bands (ev):

   -48.0699 -47.9807 -22.1095 -21.8230 -21.7798 -21.7672 -21.6845 -21.6060
     4.0763  10.8140  12.3989  13.2520  14.4295  15.5325  16.0830  16.6033
    16.7228  16.8990  18.0344  18.2540  19.9914  22.0064  22.2829  27.3297
    29.0724  30.9132  33.3657  34.0707  36.2634  36.8447

          k = 0.1667 0.0962 0.1067 (   945 PWs)   bands (ev):

   -48.0654 -47.9807 -22.0970 -21.8363 -21.7879 -21.7842 -21.6875 -21.6122
     4.1661  10.8660  12.2602  13.2288  14.4282  15.4212  16.0258  16.6690
    16.8123  16.9643  18.0907  18.3317  20.1043  21.9062  22.2405  27.4079
    29.2504  30.4920  33.2029  34.0606  36.0521  36.6275

          k = 0.1833 0.1058 0.1174 (   945 PWs)   bands (ev):

   -48.0605 -47.9807 -22.0848 -21.8499 -21.8095 -21.7887 -21.6910 -21.6186
     4.2611  10.9172  12.1295  13.2066  14.4157  15.3168  15.9783  16.7418
    16.9042  17.0362  18.1357  18.3993  20.2072  21.8136  22.2105  27.4900
    29.4042  30.0893  33.0576  34.0092  35.7994  36.4251

          k = 0.2000 0.1155 0.1281 (   945 PWs)   bands (ev):

   -48.0554 -47.9807 -22.0736 -21.8640 -21.8307 -21.7931 -21.6949 -21.6250
     4.3601  10.9631  12.0119  13.1861  14.3932  15.2209  15.9412  16.8207
    16.9972  17.1140  18.1668  18.4548  20.2962  21.7326  22.1976  27.5745
    29.4179  29.8171  32.9304  33.9104  35.5453  36.2236

          k = 0.2167 0.1251 0.1388 (   945 PWs)   bands (ev):

   -48.0502 -47.9808 -22.0641 -21.8801 -21.8490 -21.7973 -21.6993 -21.6315
     4.4618  10.9973  11.9141  13.1680  14.3629  15.1344  15.9140  16.9044
    17.0898  17.1969  18.1818  18.4969  20.3676  21.6666  22.2059  27.6598
    29.1139  29.8479  32.8232  33.7625  35.3082  36.0286

          k = 0.2333 0.1347 0.1494 (   943 PWs)   bands (ev):

   -48.0448 -47.9808 -22.0575 -21.8998 -21.8612 -21.8014 -21.7041 -21.6380
     4.5650  11.0117  11.8442  13.1527  14.3278  15.0578  15.8959  16.9910
    17.1810  17.2843  18.1799  18.5244  20.4187  21.6179  22.2382  27.7436
    28.7259  29.9435  32.7372  33.5687  35.0975  35.8490

          k = 0.2500 0.1443 0.1601 (   935 PWs)   bands (ev):

   -48.0393 -47.9808 -22.0547 -21.9228 -21.8667 -21.8051 -21.7093 -21.6446
     4.6685  10.9992  11.8090  13.1408  14.2911  14.9919  15.8851  17.0782
    17.2699  17.3755  18.1618  18.5370  20.4485  21.5882  22.2952  27.8224
    28.3366  30.0198  32.6708  33.3363  34.9207  35.6923

          k = 0.2667 0.1540 0.1708 (   937 PWs)   bands (ev):

   -48.0339 -47.9808 -22.0559 -21.9472 -21.8665 -21.8085 -21.7149 -21.6511
     4.7708  10.9588  11.8082  13.1324  14.2564  14.9370  15.8797  17.1624
    17.3555  17.4698  18.1300  18.5351  20.4576  21.5773  22.3749  27.8784
    27.9746  30.0660  32.6178  33.0742  34.7836  35.5641

          k = 0.2833 0.1636 0.1814 (   939 PWs)   bands (ev):

   -48.0284 -47.9808 -22.0611 -21.9719 -21.8616 -21.8114 -21.7207 -21.6575
     4.8710  10.8970  11.8345  13.1277  14.2266  14.8937  15.8779  17.2392
    17.4368  17.5664  18.0895  18.5204  20.4478  21.5843  22.4729  27.5913
    27.9621  30.0857  32.5685  32.7918  34.6888  35.4694

          k = 0.3000 0.1732 0.1921 (   939 PWs)   bands (ev):

   -48.0231 -47.9808 -22.0694 -21.9963 -21.8532 -21.8139 -21.7268 -21.6637
     4.9677  10.8228  11.8774  13.1267  14.2046  14.8627  15.8777  17.3020
    17.5121  17.6643  18.0482  18.4959  20.4214  21.6071  22.5829  27.2578
    28.0030  30.0887  32.4978  32.5135  34.6313  35.4139

          k = 0.3167 0.1828 0.2028 (   938 PWs)   bands (ev):

   -48.0180 -47.9808 -22.0799 -22.0199 -21.8424 -21.8159 -21.7332 -21.6699
     5.0599  10.7437  11.9276  13.1295  14.1919  14.8442  15.8779  17.3421
    17.5791  17.7621  18.0168  18.4664  20.3803  21.6434  22.6976  26.9531
    28.0230  30.0873  32.2000  32.4482  34.5985  35.4034

          k = 0.3333 0.1925 0.2135 (   938 PWs)   bands (ev):

   -48.0131 -47.9809 -22.0915 -22.0424 -21.8302 -21.8174 -21.7397 -21.6758
     5.1467  10.6649  11.9785  13.1356  14.1896  14.8388  15.8773  17.3514
    17.6343  17.8578  18.0066  18.4388  20.3257  21.6901  22.8090  26.6850
    28.0170  30.0927  31.9050  32.3729  34.5762  35.4384

          k = 0.3500 0.2021 0.2241 (   937 PWs)   bands (ev):

   -48.0085 -47.9809 -22.1036 -22.0635 -21.8183 -21.8175 -21.7462 -21.6816
     5.2271  10.5896  12.0258  13.1447  14.1974  14.8461  15.8753  17.3281
    17.6733  17.9460  18.0256  18.4213  20.2581  21.7442  22.9089  26.4605
    27.9832  30.1122  31.6187  32.2916  34.5566  35.5092

          k = 0.3667 0.2117 0.2348 (   934 PWs)   bands (ev):

   -48.0041 -47.9810 -22.1156 -22.0829 -21.8186 -21.8046 -21.7529 -21.6871
     5.3006  10.5200  12.0670  13.1561  14.2143  14.8653  15.8715  17.2788
    17.6925  18.0155  18.0790  18.4218  20.1776  21.8028  22.9900  26.2860
    27.9231  30.1486  31.3464  32.2088  34.5404  35.5973

          k = 0.3833 0.2213 0.2455 (   932 PWs)   bands (ev):

   -48.0002 -47.9810 -22.1271 -22.1005 -21.8184 -21.7922 -21.7594 -21.6924
     5.3663  10.4573  12.1008  13.1693  14.2382  14.8946  15.8659  17.2146
    17.6917  18.0688  18.1541  18.4448  20.0843  21.8630  23.0470  26.1654
    27.8412  30.2003  31.0929  32.1281  34.5327  35.6801

          k = 0.4000 0.2309 0.2562 (   929 PWs)   bands (ev):

   -47.9966 -47.9811 -22.1377 -22.1159 -21.8175 -21.7804 -21.7660 -21.6975
     5.4240  10.4023  12.1272  13.1834  14.2668  14.9311  15.8587  17.1448
    17.6758  18.1180  18.2295  18.4896  19.9789  21.9221  23.0787  26.0983
    27.7440  30.2625  30.8625  32.0524  34.5396  35.7360

          k = 0.4167 0.2406 0.2668 (   924 PWs)   bands (ev):

   -47.9935 -47.9813 -22.1473 -22.1291 -21.8160 -21.7723 -21.7694 -21.7024
     5.4733  10.3554  12.1469  13.1975  14.2974  14.9713  15.8503  17.0767
    17.6523  18.1637  18.2979  18.5521  19.8632  21.9776  23.0877  26.0791
    27.6383  30.3295  30.6593  31.9836  34.5663  35.7482

          k = 0.4333 0.2502 0.2775 (   922 PWs)   bands (ev):

   -47.9908 -47.9815 -22.1556 -22.1399 -21.8139 -21.7785 -21.7594 -21.7072
     5.5138  10.3169  12.1610  13.2107  14.3274  15.0109  15.8413  17.0152
    17.6282  18.2039  18.3566  18.6274  19.7404  22.0270  23.0806  26.0969
    27.5316  30.3947  30.4872  31.9234  34.6163  35.7083

          k = 0.4500 0.2598 0.2882 (   924 PWs)   bands (ev):

   -47.9886 -47.9817 -22.1623 -22.1482 -21.8112 -21.7843 -21.7505 -21.7120
     5.5454  10.2869  12.1704  13.2221  14.3543  15.0459  15.8326  16.9640
    17.6079  18.2369  18.4037  18.7106  19.6158  22.0681  23.0651  26.1376
    27.4317  30.3493  30.4524  31.8736  34.6904  35.6204

          k = 0.4667 0.2694 0.2989 (   922 PWs)   bands (ev):

   -47.9868 -47.9821 -22.1674 -22.1541 -21.8080 -21.7899 -21.7427 -21.7168
     5.5680  10.2655  12.1763  13.2309  14.3757  15.0732  15.8253  16.9256
    17.5936  18.2612  18.4381  18.7951  19.4984  22.0990  23.0485  26.1854
    27.3477  30.2487  30.4977  31.8361  34.7845  35.5010

          k = 0.4833 0.2791 0.3095 (   921 PWs)   bands (ev):

   -47.9855 -47.9825 -22.1705 -22.1576 -21.8042 -21.7950 -21.7360 -21.7216
     5.5816  10.2527  12.1795  13.2365  14.3894  15.0904  15.8204  16.9019
    17.5855  18.2762  18.4591  18.8669  19.4052  22.1181  23.0364  26.2236
    27.2903  30.1874  30.5265  31.8126  34.8826  35.3806

          k = 0.5000 0.2887 0.3202 (   920 PWs)   bands (ev):

   -47.9850 -47.9827 -22.1715 -22.1588 -21.8007 -21.7990 -21.7324 -21.7246
     5.5862  10.2485  12.1805  13.2383  14.3942  15.0963  15.8186  16.8939
    17.5829  18.2812  18.4662  18.8980  19.3667  22.1246  23.0320  26.2383
    27.2696  30.1668  30.5364  31.8046  34.9337  35.3207

          k = 0.4625 0.2959 0.3122 (   926 PWs)   bands (ev):

   -47.9855 -47.9827 -22.1683 -22.1562 -21.8062 -21.7986 -21.7336 -21.7208
     5.5782  10.2697  12.1801  13.2008  14.4163  15.0763  15.8338  16.8461
    17.6300  18.2577  18.4595  18.8384  19.4596  22.0996  23.0566  26.2228
    27.3131  29.9284  30.7329  31.8449  34.9239  35.4039

          k = 0.4250 0.3031 0.3042 (   922 PWs)   bands (ev):

   -47.9868 -47.9828 -22.1588 -22.1485 -21.8168 -21.8017 -21.7346 -21.7134
     5.5546  10.3330  12.1774  13.0987  14.4725  15.0290  15.8605  16.7501
    17.7287  18.1931  18.4315  18.7458  19.6570  22.0263  23.1275  26.1950
    27.4222  29.5808  30.9453  31.9697  34.9686  35.5748

          k = 0.3875 0.3103 0.2962 (   923 PWs)   bands (ev):

   -47.9888 -47.9831 -22.1437 -22.1367 -21.8300 -21.8073 -21.7348 -21.7053
     5.5166  10.4369  12.1683  12.9541  14.5413  14.9828  15.8515  16.6856
    17.7898  18.1291  18.3799  18.6866  19.8868  21.9086  23.2362  26.1929
    27.5441  29.2843  31.0175  32.1762  35.1373  35.7372

          k = 0.3500 0.3175 0.2882 (   930 PWs)   bands (ev):

   -47.9913 -47.9835 -22.1244 -22.1219 -21.8435 -21.8141 -21.7354 -21.6978
     5.4664  10.5787  12.1457  12.7897  14.6017  14.9698  15.7679  16.6974
    17.7133  18.1447  18.3289  18.6541  20.1234  21.7526  23.3672  26.2515
    27.6098  29.1117  30.9508  32.4272  35.4254  35.8326

          k = 0.3125 0.3248 0.2802 (   932 PWs)   bands (ev):

   -47.9943 -47.9840 -22.1065 -22.1024 -21.8549 -21.8207 -21.7368 -21.6914
     5.4068  10.7539  12.0995  12.6290  14.6426  15.0117  15.6213  16.7595
    17.5582  18.1445  18.3383  18.6326  20.3571  21.5694  23.4991  26.3892
    27.5768  29.1021  30.7998  32.6689  35.6475  35.9556

          k = 0.2750 0.3320 0.2722 (   936 PWs)   bands (ev):

   -47.9974 -47.9845 -22.0929 -22.0798 -21.8617 -21.8261 -21.7396 -21.6864
     5.3415  10.9535  12.0183  12.4993  14.6738  15.0989  15.4514  16.7919
    17.4322  18.0738  18.3962  18.6183  20.5815  21.3790  23.6095  26.5813
    27.5086  29.2002  30.6344  32.8537  35.4782  36.3565

          k = 0.2375 0.3392 0.2642 (   937 PWs)   bands (ev):

   -48.0007 -47.9849 -22.0841 -22.0588 -21.8619 -21.8287 -21.7437 -21.6830
     5.2746  11.1602  11.9040  12.4244  14.7063  15.1463  15.3559  16.7035
    17.4182  17.9839  18.4252  18.6135  20.7619  21.2374  23.6838  26.6999
    27.5891  29.2895  30.5376  32.9411  35.1750  36.7767

          k = 0.2000 0.3464 0.2562 (   936 PWs)   bands (ev):

   -48.0039 -47.9851 -22.0816 -22.0411 -21.8556 -21.8268 -21.7490 -21.6811
     5.2107  11.3335  11.7917  12.4180  14.7293  15.0227  15.4815  16.5066
    17.4931  17.8990  18.4040  18.6108  20.7656  21.2978  23.7177  26.6375
    27.9396  29.2811  30.5756  32.8983  34.9025  37.0675

          k = 0.1625 0.3536 0.2482 (   934 PWs)   bands (ev):

   -48.0068 -47.9850 -22.0850 -22.0282 -21.8460 -21.8187 -21.7553 -21.6808
     5.1543  11.3898  11.7525  12.4989  14.6884  14.9203  15.6785  16.2736
    17.5699  17.8483  18.3397  18.5952  20.6364  21.5293  23.7148  26.4868
    28.4322  29.2067  30.7219  32.7237  34.7550  37.1635

          k = 0.1250 0.3608 0.2402 (   935 PWs)   bands (ev):

   -48.0094 -47.9846 -22.0921 -22.0201 -21.8367 -21.8059 -21.7611 -21.6820
     5.1097  11.3237  11.7828  12.6773  14.5549  14.8934  15.8514  16.1017
    17.5811  17.8598  18.2511  18.5639  20.5044  21.7994  23.6827  26.3177
    28.7903  29.3095  30.8926  32.4705  34.7458  37.0436

          k = 0.1208 0.3488 0.2321 (   934 PWs)   bands (ev):

   -48.0127 -47.9846 -22.0862 -22.0074 -21.8328 -21.8055 -21.7624 -21.6790
     5.0511  11.3919  11.7158  12.7252  14.5471  14.8701  15.8600  16.0889
    17.5200  17.8453  18.2155  18.5714  20.5372  21.8223  23.5524  26.4182
    28.9370  29.5041  30.9117  32.3828  34.7586  37.0504

          k = 0.1167 0.3368 0.2241 (   935 PWs)   bands (ev):

   -48.0162 -47.9846 -22.0802 -21.9941 -21.8296 -21.8073 -21.7607 -21.6759
     4.9913  11.4573  11.6489  12.7749  14.5399  14.8536  15.8684  16.0808
    17.4514  17.8282  18.1874  18.5808  20.5713  21.8401  23.4104  26.5159
    29.0860  29.7096  30.9354  32.2997  34.7852  37.0372

          k = 0.1125 0.3248 0.2161 (   936 PWs)   bands (ev):

   -48.0198 -47.9845 -22.0745 -21.9803 -21.8282 -21.8094 -21.7569 -21.6725
     4.9302  11.5062  11.5965  12.8259  14.5310  14.8463  15.8770  16.0771
    17.3799  17.8018  18.1703  18.5900  20.6072  21.8508  23.2622  26.6082
    29.2327  29.9228  30.9633  32.2288  34.8251  37.0011

          k = 0.1083 0.3127 0.2081 (   936 PWs)   bands (ev):

   -48.0235 -47.9844 -22.0693 -21.9661 -21.8296 -21.8093 -21.7519 -21.6690
     4.8681  11.4785  11.6194  12.8778  14.5190  14.8500  15.8860  16.0774
    17.3078  17.7643  18.1638  18.5974  20.6457  21.8517  23.1141  26.6935
    29.3718  30.1392  30.9952  32.1794  34.8774  36.9461

          k = 0.1042 0.3007 0.2001 (   937 PWs)   bands (ev):

   -48.0272 -47.9843 -22.0648 -21.9517 -21.8333 -21.8069 -21.7465 -21.6652
     4.8050  11.4130  11.6798  12.9301  14.5036  14.8652  15.8958  16.0810
    17.2367  17.7173  18.1652  18.6016  20.6871  21.8390  22.9726  26.7708
    29.4974  30.3522  31.0307  32.1629  34.9408  36.8784

          k = 0.1000 0.2887 0.1921 (   937 PWs)   bands (ev):

   -48.0310 -47.9842 -22.0613 -21.9370 -21.8373 -21.8033 -21.7409 -21.6613
     4.7412  11.3437  11.7445  12.9822  14.4856  14.8910  15.9068  16.0875
    17.1677  17.6636  18.1709  18.6016  20.7320  21.8078  22.8452  26.8395
    29.6029  30.5540  31.0709  32.1913  35.0136  36.8031

          k = 0.0958 0.2766 0.1841 (   937 PWs)   bands (ev):

   -48.0348 -47.9840 -22.0590 -21.9223 -21.8407 -21.7992 -21.7352 -21.6573
     4.6768  11.2751  11.8098  13.0333  14.4664  14.9260  15.9192  16.0964
    17.1012  17.6058  18.1776  18.5967  20.7799  21.7536  22.7391  26.8994
    29.6813  30.7375  31.1189  32.2740  35.0939  36.7233

          k = 0.0917 0.2646 0.1761 (   938 PWs)   bands (ev):

   -48.0386 -47.9839 -22.0582 -21.9076 -21.8427 -21.7949 -21.7297 -21.6531
     4.6119  11.2085  11.8751  13.0830  14.4474  14.9687  15.9332  16.1073
    17.0376  17.5458  18.1831  18.5862  20.8300  21.6749  22.6588  26.9503
    29.7269  30.8991  31.1797  32.4138  35.1788  36.6422

          k = 0.0875 0.2526 0.1681 (   940 PWs)   bands (ev):

   -48.0424 -47.9837 -22.0590 -21.8933 -21.8429 -21.7905 -21.7244 -21.6487
     4.5467  11.1448  11.9406  13.1303  14.4296  15.0180  15.9487  16.1201
    16.9773  17.4847  18.1860  18.5696  20.8790  21.5765  22.6043  26.9924
    29.7369  31.0407  31.2584  32.6047  35.2645  36.5631

          k = 0.0833 0.2406 0.1601 (   940 PWs)   bands (ev):

   -48.0461 -47.9835 -22.0615 -21.8797 -21.8410 -21.7861 -21.7193 -21.6442
     4.4816  11.0843  12.0063  13.1747  14.4137  15.0728  15.9659  16.1345
    16.9202  17.4235  18.1851  18.5467  20.9192  21.4720  22.5713  27.0259
    29.7128  31.1674  31.3578  32.8352  35.3459  36.4910

          k = 0.0792 0.2285 0.1521 (   937 PWs)   bands (ev):

   -48.0499 -47.9833 -22.0654 -21.8673 -21.8365 -21.7815 -21.7144 -21.6397
     4.4167  11.0272  12.0727  13.2156  14.4001  15.1323  15.9846  16.1506
    16.8663  17.3628  18.1799  18.5172  20.9315  21.3874  22.5543  27.0511
    29.6599  31.2846  31.4778  33.0925  35.4163  36.4325

          k = 0.0750 0.2165 0.1441 (   937 PWs)   bands (ev):

   -48.0535 -47.9831 -22.0707 -21.8566 -21.8295 -21.7768 -21.7098 -21.6350
     4.3523  10.9739  12.1400  13.2525  14.3890  15.1959  16.0051  16.1681
    16.8155  17.3029  18.1698  18.4812  20.8873  21.3567  22.5479  27.0687
    29.5847  31.3970  31.6158  33.3649  35.4674  36.3961

          k = 0.0708 0.2045 0.1361 (   943 PWs)   bands (ev):

   -48.0571 -47.9829 -22.0772 -21.8475 -21.8203 -21.7719 -21.7055 -21.6302
     4.2888  10.9243  12.2086  13.2850  14.3802  15.2630  16.0272  16.1872
    16.7677  17.2441  18.1547  18.4389  20.7857  21.3855  22.5484  27.0791
    29.4934  31.5084  31.7680  33.6427  35.4910  36.3909

          k = 0.0667 0.1925 0.1281 (   944 PWs)   bands (ev):

   -48.0606 -47.9827 -22.0845 -21.8393 -21.8102 -21.7665 -21.7015 -21.6254
     4.2265  10.8784  12.2788  13.3129  14.3733  15.3333  16.0511  16.2077
    16.7227  17.1865  18.1345  18.3907  20.6535  21.4501  22.5531  27.0834
    29.3909  31.6216  31.9310  33.9170  35.4840  36.4223

          k = 0.0625 0.1804 0.1201 (   948 PWs)   bands (ev):

   -48.0640 -47.9825 -22.0924 -21.8315 -21.8003 -21.7605 -21.6977 -21.6206
     4.1656  10.8361  12.3508  13.3363  14.3679  15.4063  16.0768  16.2293
    16.6803  17.1300  18.1091  18.3372  20.5103  21.5325  22.5602  27.0823
    29.2813  31.7383  32.1015  34.1801  35.4502  36.4898

          k = 0.0583 0.1684 0.1121 (   947 PWs)   bands (ev):

   -48.0672 -47.9823 -22.1007 -21.8238 -21.7915 -21.7535 -21.6942 -21.6157
     4.1067  10.7973  12.4250  13.3552  14.3632  15.4815  16.1046  16.2519
    16.6403  17.0746  18.0789  18.2792  20.3653  21.6248  22.5686  27.0767
    29.1676  31.8596  32.2768  34.4241  35.3984  36.5899

          k = 0.0542 0.1564 0.1041 (   946 PWs)   bands (ev):

   -48.0703 -47.9821 -22.1091 -21.8162 -21.7842 -21.7457 -21.6911 -21.6109
     4.0499  10.7620  12.5013  13.3700  14.3585  15.5586  16.1341  16.2752
    16.6028  17.0202  18.0439  18.2177  20.2232  21.7227  22.5773  27.0676
    29.0521  31.9859  32.4544  34.6414  35.3380  36.7192

          k = 0.0500 0.1443 0.0961 (   946 PWs)   bands (ev):

   -48.0732 -47.9819 -22.1175 -21.8086 -21.7782 -21.7372 -21.6882 -21.6061
     3.9956  10.7298  12.5799  13.3811  14.3528  15.6369  16.1652  16.2989
    16.5676  16.9669  18.0047  18.1539  20.0865  21.8235  22.5859  27.0560
    28.9366  32.1175  32.6315  34.8223  35.2812  36.8752

          k = 0.0458 0.1323 0.0881 (   943 PWs)   bands (ev):

   -48.0760 -47.9817 -22.1257 -21.8013 -21.7735 -21.7283 -21.6857 -21.6013
     3.9443  10.7008  12.6606  13.3889  14.3455  15.7160  16.1970  16.3231
    16.5350  16.9148  17.9618  18.0888  19.9569  21.9253  22.5940  27.0426
    28.8229  32.2544  32.8049  34.9457  35.2526  37.0541

          k = 0.0417 0.1203 0.0801 (   944 PWs)   bands (ev):

   -48.0785 -47.9815 -22.1335 -21.7942 -21.7697 -21.7196 -21.6834 -21.5967
     3.8962  10.6746  12.7431  13.3939  14.3356  15.7950  16.2280  16.3480
    16.5050  16.8645  17.9161  18.0236  19.8354  22.0261  22.6014  27.0284
    28.7123  32.3963  32.9712  34.9757  35.2940  37.2498

          k = 0.0375 0.1083 0.0720 (   944 PWs)   bands (ev):

   -48.0809 -47.9814 -22.1409 -21.7874 -21.7665 -21.7114 -21.6814 -21.5923
     3.8516  10.6513  12.8270  13.3967  14.3227  15.8733  16.2559  16.3740
    16.4787  16.8169  17.8684  17.9592  19.7228  22.1243  22.6079  27.0140
    28.6063  32.5427  33.1265  34.9360  35.3893  37.4514

          k = 0.0333 0.0962 0.0640 (   945 PWs)   bands (ev):

   -48.0830 -47.9812 -22.1478 -21.7811 -21.7639 -21.7037 -21.6797 -21.5881
     3.8108  10.6307  12.9114  13.3977  14.3062  15.9497  16.2778  16.3990
    16.4591  16.7733  17.8202  17.8965  19.6197  22.2181  22.6136  27.0001
    28.5062  32.6928  33.2666  34.8724  35.5010  37.6410

          k = 0.0292 0.0842 0.0560 (   945 PWs)   bands (ev):

   -48.0849 -47.9811 -22.1540 -21.7754 -21.7617 -21.6968 -21.6782 -21.5841
     3.7742  10.6127  12.9956  13.3975  14.2859  16.0229  16.2916  16.4081
    16.4620  16.7354  17.7727  17.8359  19.5267  22.3061  22.6184  26.9871
    28.4134  32.8457  33.3880  34.8002  35.6214  37.7918

          k = 0.0250 0.0722 0.0480 (   947 PWs)   bands (ev):

   -48.0866 -47.9809 -22.1596 -21.7702 -21.7598 -21.6908 -21.6770 -21.5805
     3.7419  10.5972  13.0780  13.3964  14.2619  16.0913  16.2970  16.3962
    16.4917  16.7045  17.7274  17.7782  19.4444  22.3866  22.6223  26.9755
    28.3293  32.9998  33.4882  34.7226  35.7525  37.8792

          k = 0.0208 0.0601 0.0400 (   949 PWs)   bands (ev):

   -48.0880 -47.9808 -22.1643 -21.7657 -21.7583 -21.6857 -21.6761 -21.5773
     3.7142  10.5841  13.1569  13.3949  14.2349  16.1524  16.2959  16.3811
    16.5284  16.6815  17.6857  17.7245  19.3733  22.4579  22.6255  26.9654
    28.2551  33.1534  33.5666  34.6398  35.8965  37.9058

          k = 0.0167 0.0481 0.0320 (   954 PWs)   bands (ev):

   -48.0892 -47.9808 -22.1683 -21.7619 -21.7571 -21.6815 -21.6753 -21.5746
     3.6912  10.5735  13.2299  13.3931  14.2062  16.2017  16.2935  16.3675
    16.5651  16.6658  17.6488  17.6761  19.3141  22.5186  22.6280  26.9571
    28.1922  33.3037  33.6246  34.5518  36.0519  37.8968

          k = 0.0125 0.0361 0.0240 (   956 PWs)   bands (ev):

   -48.0901 -47.9807 -22.1714 -21.7589 -21.7562 -21.6782 -21.6747 -21.5724
     3.6732  10.5653  13.2937  13.3915  14.1779  16.2298  16.3002  16.3566
    16.5981  16.6561  17.6182  17.6349  19.2673  22.5673  22.6298  26.9506
    28.1418  33.4465  33.6649  34.4603  36.2123  37.8742

          k = 0.0083 0.0241 0.0160 (   956 PWs)   bands (ev):

   -48.0908 -47.9806 -22.1737 -21.7568 -21.7555 -21.6759 -21.6743 -21.5708
     3.6603  10.5594  13.3445  13.3903  14.1533  16.2349  16.3193  16.3487
    16.6245  16.6508  17.5951  17.6030  19.2335  22.6030  22.6311  26.9461
    28.1050  33.5741  33.6907  34.3709  36.3635  37.8513

          k = 0.0042 0.0120 0.0080 (   953 PWs)   bands (ev):

   -48.0912 -47.9806 -22.1751 -21.7554 -21.7551 -21.6745 -21.6741 -21.5698
     3.6525  10.5559  13.3776  13.3894  14.1361  16.2323  16.3361  16.3440
    16.6416  16.6482  17.5807  17.5827  19.2130  22.6248  22.6319  26.9433
    28.0826  33.6709  33.7049  34.2975  36.4796  37.8353

          k =-0.0000 0.0000 0.0000 (   953 PWs)   bands (ev):

   -48.0913 -47.9806 -22.1755 -21.7550 -21.7550 -21.6740 -21.6740 -21.5695
     3.6499  10.5548  13.3892  13.3892  14.1299  16.2308  16.3424  16.3424
    16.6475  16.6475  17.5757  17.5757  19.2062  22.6321  22.6321  26.9424
    28.0750  33.7095  33.7095  34.2668  36.5250  37.8296

     Writing output data file ./outs/v2c.save/

     init_run     :      0.47s CPU      0.73s WALL (       1 calls)
     electrons    :     74.80s CPU     94.22s WALL (       1 calls)

     Called by init_run:
     wfcinit      :      0.00s CPU      0.00s WALL (       1 calls)
     wfcinit:atom :      0.05s CPU      0.05s WALL (      91 calls)
     wfcinit:wfcr :      3.36s CPU      4.38s WALL (      91 calls)
     potinit      :      0.03s CPU      0.10s WALL (       1 calls)
     hinit0       :      0.39s CPU      0.48s WALL (       1 calls)

     Called by electrons:
     c_bands      :     74.80s CPU     94.21s WALL (       1 calls)
     v_of_rho     :      0.00s CPU      0.04s WALL (       1 calls)
     v_h          :      0.00s CPU      0.00s WALL (       1 calls)
     v_xc         :      0.00s CPU      0.04s WALL (       1 calls)
     newd         :      0.05s CPU      0.14s WALL (       1 calls)
     PAW_pot      :      0.02s CPU      0.05s WALL (       1 calls)

     Called by c_bands:
     init_us_2    :      0.06s CPU      0.06s WALL (      91 calls)
     cegterg      :     71.06s CPU     89.35s WALL (     173 calls)

     Called by sum_band:

     Called by *egterg:
     cdiaghg      :      5.08s CPU      6.10s WALL (    2663 calls)
     cegterg:over :      9.03s CPU     11.71s WALL (    2572 calls)
     cegterg:upda :      5.83s CPU      7.20s WALL (    2572 calls)
     cegterg:last :     15.81s CPU     20.05s WALL (    1181 calls)
     h_psi        :     31.42s CPU     39.68s WALL (    2836 calls)
     s_psi        :      5.11s CPU      6.24s WALL (    2836 calls)
     g_psi        :      0.33s CPU      0.34s WALL (    2572 calls)

     Called by h_psi:
     h_psi:calbec :      5.08s CPU      5.96s WALL (    2836 calls)
     vloc_psi     :     20.98s CPU     26.88s WALL (    2836 calls)
     add_vuspsi   :      5.27s CPU      6.64s WALL (    2836 calls)

     General routines
     calbec       :      5.08s CPU      5.95s WALL (    2836 calls)
     fft          :      0.02s CPU      0.02s WALL (      13 calls)
     ffts         :      0.02s CPU      0.01s WALL (       1 calls)
     fftw         :     17.61s CPU     22.23s WALL (   80034 calls)
     interpolate  :      0.02s CPU      0.01s WALL (       1 calls)
     davcio       :      0.00s CPU      0.05s WALL (     182 calls)

     Parallel routines

     PAW routines
     PAW_pot      :      0.02s CPU      0.05s WALL (       1 calls)

     PWSCF        :   1m15.72s CPU   1m35.60s WALL


   This run was terminated on:  16: 8: 0  31May2024            

=------------------------------------------------------------------------------=
   JOB DONE.
=------------------------------------------------------------------------------=
