
     Program BANDS v.6.7MaX starts on 31May2024 at 16:11:41 

     This program is part of the open-source Quantum ESPRESSO suite
     for quantum simulation of materials; please cite
         "P. Giannozzi et al., J. Phys.:Condens. Matter 21 395502 (2009);
         "P. Giannozzi et al., J. Phys.:Condens. Matter 29 465901 (2017);
          URL http://www.quantum-espresso.org", 
     in publications or presentations arising from this work. More details at
     http://www.quantum-espresso.org/quote

     Parallel version (MPI), running on     1 processors

     MPI processes distributed on     1 nodes

     Reading xml data from directory:

     ./outs/v2c.save/
     file C.pbe-n-kjpaw_psl.1.0.0.UPF: wavefunction(s)  2S 2P renormalized

     IMPORTANT: XC functional enforced from input :
     Exchange-correlation= PBE
                           (   1   4   3   4   0   0   0)
     Any further DFT definition will be discarded
     Please, verify this is what you really want


     G-vector sticks info
     --------------------
     sticks:   dense  smooth     PW     G-vecs:    dense   smooth      PW
     Sum         649     313    109                21181     7415    1315


     Check: negative core charge=   -0.000009

     negative rho (up, down):  2.467E-03 0.000E+00
     Reading collected, re-writing distributed wavefunctions
     high-symmetry point: -0.5000 0.2887 0.0000   x coordinate   0.0000
     high-symmetry point:  0.0000 0.0000 0.0000   x coordinate   0.5774
     high-symmetry point:  0.5000 0.2887 0.3202   x coordinate   1.2375
     high-symmetry point:  0.1250 0.3608 0.2402   x coordinate   1.6277
     high-symmetry point:  0.0000 0.0000 0.0000   x coordinate   2.0788

     Plottable bands (eV) written to file v2c_bands.dat.gnu
     Bands written to file v2c_bands.dat

 **************************************************************************

                    xk=(  -0.50000,   0.28868,   0.00000  )

     point group C_2h (2/m) 
     there are  4 classes
     the character table:

       E     C2    i     s_h  
A_g    1.00  1.00  1.00  1.00
B_g    1.00 -1.00  1.00 -1.00
A_u    1.00  1.00 -1.00 -1.00
B_u    1.00 -1.00 -1.00  1.00

     the symmetry operations in each class and the name of the first element:

     E        1
                                                                 
     C2       2
                                                                 
     i        3
                                                                 
     s_h      4
                                                                 

     Band symmetry, C_2h (2/m)  point group:

     e(  1 -  1) =    -48.00210  eV     1   --> B_u            
     e(  2 -  2) =    -47.96566  eV     1   --> A_g            
     e(  3 -  3) =    -22.13935  eV     1   --> A_g            
     e(  4 -  4) =    -22.02411  eV     1   --> B_u            
     e(  5 -  5) =    -21.91241  eV     1   --> B_u            
     e(  6 -  6) =    -21.87859  eV     1   --> A_u            
     e(  7 -  7) =    -21.72015  eV     1   --> B_g            
     e(  8 -  8) =    -21.71541  eV     1   --> A_g            
     e(  9 -  9) =      5.63275  eV     1   --> A_g            
     e( 10 - 10) =     10.21158  eV     1   --> B_u            
     e( 11 - 11) =     12.41001  eV     1   --> B_u            
     e( 12 - 12) =     12.90122  eV     1   --> A_u            
     e( 13 - 13) =     13.43580  eV     1   --> A_g            
     e( 14 - 14) =     14.71260  eV     1   --> A_g            
     e( 15 - 15) =     16.08663  eV     1   --> B_u            
     e( 16 - 16) =     18.11703  eV     1   --> A_u            
     e( 17 - 17) =     18.38767  eV     1   --> B_g            
     e( 18 - 18) =     18.67551  eV     1   --> B_g            
     e( 19 - 19) =     18.92317  eV     1   --> B_u            
     e( 20 - 20) =     19.19350  eV     1   --> A_g            
     e( 21 - 21) =     19.32514  eV     1   --> B_u            
     e( 22 - 22) =     20.33078  eV     1   --> A_u            
     e( 23 - 23) =     23.90810  eV     1   --> A_g            
     e( 24 - 24) =     24.32838  eV     1   --> B_u            
     e( 25 - 25) =     28.03999  eV     1   --> A_g            
     e( 26 - 26) =     30.10823  eV     1   --> A_g            
     e( 27 - 27) =     31.48923  eV     1   --> B_u            
     e( 28 - 28) =     32.93658  eV     1   --> A_u            
     e( 29 - 29) =     33.74543  eV     1   --> A_g            
     e( 30 - 30) =     33.94527  eV     1   --> B_g            

 **************************************************************************

 **************************************************************************

                    xk=(  -0.47500,   0.27424,   0.00000  )

     point group C_s (m)    
     there are  2 classes
     the character table:

       E     s    
A'     1.00  1.00
A''    1.00 -1.00

     the symmetry operations in each class and the name of the first element:

     E        1
                                                                 
     s        2
                                                                 

     Band symmetry, C_s (m)     point group:

     e(  1 -  1) =    -48.00288  eV     1   --> A'             
     e(  2 -  2) =    -47.96552  eV     1   --> A'             
     e(  3 -  3) =    -22.13700  eV     1   --> A'             
     e(  4 -  4) =    -22.02206  eV     1   --> A'             
     e(  5 -  5) =    -21.91530  eV     1   --> A'             
     e(  6 -  6) =    -21.87789  eV     1   --> A''            
     e(  7 -  7) =    -21.71981  eV     1   --> A''            
     e(  8 -  8) =    -21.71322  eV     1   --> A'             
     e(  9 -  9) =      5.61848  eV     1   --> A'             
     e( 10 - 10) =     10.22563  eV     1   --> A'             
     e( 11 - 11) =     12.40554  eV     1   --> A'             
     e( 12 - 12) =     12.90626  eV     1   --> A''            
     e( 13 - 13) =     13.44537  eV     1   --> A'             
     e( 14 - 14) =     14.71035  eV     1   --> A'             
     e( 15 - 15) =     16.07632  eV     1   --> A'             
     e( 16 - 16) =     18.08402  eV     1   --> A''            
     e( 17 - 17) =     18.37391  eV     1   --> A''            
     e( 18 - 18) =     18.66665  eV     1   --> A''            
     e( 19 - 19) =     18.82289  eV     1   --> A'             
     e( 20 - 20) =     19.17233  eV     1   --> A'             
     e( 21 - 21) =     19.45232  eV     1   --> A'             
     e( 22 - 22) =     20.36939  eV     1   --> A''            
     e( 23 - 23) =     23.69198  eV     1   --> A'             
     e( 24 - 24) =     24.54619  eV     1   --> A'             
     e( 25 - 25) =     28.06881  eV     1   --> A'             
     e( 26 - 26) =     30.13414  eV     1   --> A'             
     e( 27 - 27) =     31.49349  eV     1   --> A'             
     e( 28 - 28) =     32.93612  eV     1   --> A''            
     e( 29 - 29) =     33.74178  eV     1   --> A'             
     e( 30 - 30) =     33.98084  eV     1   --> A''            

 **************************************************************************

 **************************************************************************

                    xk=(  -0.45000,   0.25981,   0.00000  )

     Band symmetry, C_s (m)     point group:

     e(  1 -  1) =    -48.00515  eV     1   --> A'             
     e(  2 -  2) =    -47.96518  eV     1   --> A'             
     e(  3 -  3) =    -22.13003  eV     1   --> A'             
     e(  4 -  4) =    -22.01595  eV     1   --> A'             
     e(  5 -  5) =    -21.92354  eV     1   --> A'             
     e(  6 -  6) =    -21.87581  eV     1   --> A''            
     e(  7 -  7) =    -21.71880  eV     1   --> A''            
     e(  8 -  8) =    -21.70705  eV     1   --> A'             
     e(  9 -  9) =      5.57622  eV     1   --> A'             
     e( 10 - 10) =     10.26739  eV     1   --> A'             
     e( 11 - 11) =     12.39137  eV     1   --> A'             
     e( 12 - 12) =     12.92099  eV     1   --> A''            
     e( 13 - 13) =     13.47390  eV     1   --> A'             
     e( 14 - 14) =     14.70418  eV     1   --> A'             
     e( 15 - 15) =     16.04679  eV     1   --> A'             
     e( 16 - 16) =     17.99023  eV     1   --> A''            
     e( 17 - 17) =     18.33165  eV     1   --> A''            
     e( 18 - 18) =     18.63008  eV     1   --> A'             
     e( 19 - 19) =     18.64511  eV     1   --> A''            
     e( 20 - 20) =     19.17013  eV     1   --> A'             
     e( 21 - 21) =     19.66349  eV     1   --> A'             
     e( 22 - 22) =     20.47626  eV     1   --> A''            
     e( 23 - 23) =     23.34893  eV     1   --> A'             
     e( 24 - 24) =     24.89636  eV     1   --> A'             
     e( 25 - 25) =     28.15059  eV     1   --> A'             
     e( 26 - 26) =     30.20805  eV     1   --> A'             
     e( 27 - 27) =     31.51000  eV     1   --> A'             
     e( 28 - 28) =     32.93510  eV     1   --> A''            
     e( 29 - 29) =     33.73061  eV     1   --> A'             
     e( 30 - 30) =     34.08630  eV     1   --> A''            

 **************************************************************************

 **************************************************************************

                    xk=(  -0.42500,   0.24537,   0.00000  )

     Band symmetry, C_s (m)     point group:

     e(  1 -  1) =    -48.00869  eV     1   --> A'             
     e(  2 -  2) =    -47.96479  eV     1   --> A'             
     e(  3 -  3) =    -22.11861  eV     1   --> A'             
     e(  4 -  4) =    -22.00592  eV     1   --> A'             
     e(  5 -  5) =    -21.93609  eV     1   --> A'             
     e(  6 -  6) =    -21.87240  eV     1   --> A''            
     e(  7 -  7) =    -21.71716  eV     1   --> A''            
     e(  8 -  8) =    -21.69789  eV     1   --> A'             
     e(  9 -  9) =      5.50770  eV     1   --> A'             
     e( 10 - 10) =     10.33585  eV     1   --> A'             
     e( 11 - 11) =     12.36538  eV     1   --> A'             
     e( 12 - 12) =     12.94497  eV     1   --> A''            
     e( 13 - 13) =     13.52083  eV     1   --> A'             
     e( 14 - 14) =     14.69584  eV     1   --> A'             
     e( 15 - 15) =     16.00225  eV     1   --> A'             
     e( 16 - 16) =     17.84934  eV     1   --> A''            
     e( 17 - 17) =     18.26056  eV     1   --> A''            
     e( 18 - 18) =     18.42449  eV     1   --> A'             
     e( 19 - 19) =     18.61882  eV     1   --> A''            
     e( 20 - 20) =     19.17932  eV     1   --> A'             
     e( 21 - 21) =     19.88330  eV     1   --> A'             
     e( 22 - 22) =     20.63199  eV     1   --> A''            
     e( 23 - 23) =     22.99276  eV     1   --> A'             
     e( 24 - 24) =     25.27075  eV     1   --> A'             
     e( 25 - 25) =     28.27235  eV     1   --> A'             
     e( 26 - 26) =     30.31624  eV     1   --> A'             
     e( 27 - 27) =     31.55192  eV     1   --> A'             
     e( 28 - 28) =     32.93474  eV     1   --> A''            
     e( 29 - 29) =     33.71155  eV     1   --> A'             
     e( 30 - 30) =     34.25856  eV     1   --> A''            

 **************************************************************************

 **************************************************************************

                    xk=(  -0.40000,   0.23094,   0.00000  )

     Band symmetry, C_s (m)     point group:

     e(  1 -  1) =    -48.01327  eV     1   --> A'             
     e(  2 -  2) =    -47.96450  eV     1   --> A'             
     e(  3 -  3) =    -22.10304  eV     1   --> A'             
     e(  4 -  4) =    -21.99219  eV     1   --> A'             
     e(  5 -  5) =    -21.95175  eV     1   --> A'             
     e(  6 -  6) =    -21.86771  eV     1   --> A''            
     e(  7 -  7) =    -21.71493  eV     1   --> A''            
     e(  8 -  8) =    -21.68682  eV     1   --> A'             
     e(  9 -  9) =      5.41561  eV     1   --> A'             
     e( 10 - 10) =     10.42968  eV     1   --> A'             
     e( 11 - 11) =     12.32456  eV     1   --> A'             
     e( 12 - 12) =     12.97752  eV     1   --> A''            
     e( 13 - 13) =     13.58512  eV     1   --> A'             
     e( 14 - 14) =     14.68817  eV     1   --> A'             
     e( 15 - 15) =     15.94941  eV     1   --> A'             
     e( 16 - 16) =     17.67821  eV     1   --> A''            
     e( 17 - 17) =     18.16332  eV     1   --> A''            
     e( 18 - 18) =     18.22402  eV     1   --> A'             
     e( 19 - 19) =     18.59080  eV     1   --> A''            
     e( 20 - 20) =     19.19288  eV     1   --> A'             
     e( 21 - 21) =     20.09558  eV     1   --> A'             
     e( 22 - 22) =     20.81714  eV     1   --> A''            
     e( 23 - 23) =     22.63907  eV     1   --> A'             
     e( 24 - 24) =     25.66242  eV     1   --> A'             
     e( 25 - 25) =     28.41557  eV     1   --> A'             
     e( 26 - 26) =     30.42870  eV     1   --> A'             
     e( 27 - 27) =     31.64603  eV     1   --> A'             
     e( 28 - 28) =     32.93656  eV     1   --> A''            
     e( 29 - 29) =     33.68585  eV     1   --> A'             
     e( 30 - 30) =     34.49331  eV     1   --> A''            

 **************************************************************************

 **************************************************************************

                    xk=(  -0.37500,   0.21651,   0.00000  )

     Band symmetry, C_s (m)     point group:

     e(  1 -  1) =    -48.01865  eV     1   --> A'             
     e(  2 -  2) =    -47.96444  eV     1   --> A'             
     e(  3 -  3) =    -22.08375  eV     1   --> A'             
     e(  4 -  4) =    -21.97525  eV     1   --> A'             
     e(  5 -  5) =    -21.96925  eV     1   --> A'             
     e(  6 -  6) =    -21.86186  eV     1   --> A''            
     e(  7 -  7) =    -21.71219  eV     1   --> A''            
     e(  8 -  8) =    -21.67476  eV     1   --> A'             
     e(  9 -  9) =      5.30327  eV     1   --> A'             
     e( 10 - 10) =     10.54708  eV     1   --> A'             
     e( 11 - 11) =     12.26543  eV     1   --> A'             
     e( 12 - 12) =     13.01745  eV     1   --> A''            
     e( 13 - 13) =     13.66504  eV     1   --> A'             
     e( 14 - 14) =     14.68499  eV     1   --> A'             
     e( 15 - 15) =     15.89649  eV     1   --> A'             
     e( 16 - 16) =     17.49202  eV     1   --> A''            
     e( 17 - 17) =     18.03307  eV     1   --> A'             
     e( 18 - 18) =     18.04432  eV     1   --> A''            
     e( 19 - 19) =     18.56029  eV     1   --> A''            
     e( 20 - 20) =     19.20616  eV     1   --> A'             
     e( 21 - 21) =     20.29201  eV     1   --> A'             
     e( 22 - 22) =     21.01656  eV     1   --> A''            
     e( 23 - 23) =     22.29630  eV     1   --> A'             
     e( 24 - 24) =     26.07331  eV     1   --> A'             
     e( 25 - 25) =     28.56066  eV     1   --> A'             
     e( 26 - 26) =     30.49990  eV     1   --> A'             
     e( 27 - 27) =     31.82711  eV     1   --> A'             
     e( 28 - 28) =     32.94181  eV     1   --> A''            
     e( 29 - 29) =     33.66006  eV     1   --> A'             
     e( 30 - 30) =     34.78538  eV     1   --> A''            

 **************************************************************************

 **************************************************************************

                    xk=(  -0.35000,   0.20207,   0.00000  )

     Band symmetry, C_s (m)     point group:

     e(  1 -  1) =    -48.02464  eV     1   --> A'             
     e(  2 -  2) =    -47.96470  eV     1   --> A'             
     e(  3 -  3) =    -22.06143  eV     1   --> A'             
     e(  4 -  4) =    -21.98824  eV     1   --> A'             
     e(  5 -  5) =    -21.95480  eV     1   --> A'             
     e(  6 -  6) =    -21.85496  eV     1   --> A''            
     e(  7 -  7) =    -21.70902  eV     1   --> A''            
     e(  8 -  8) =    -21.66239  eV     1   --> A'             
     e(  9 -  9) =      5.17446  eV     1   --> A'             
     e( 10 - 10) =     10.68597  eV     1   --> A'             
     e( 11 - 11) =     12.18503  eV     1   --> A'             
     e( 12 - 12) =     13.06313  eV     1   --> A''            
     e( 13 - 13) =     13.75791  eV     1   --> A'             
     e( 14 - 14) =     14.69101  eV     1   --> A'             
     e( 15 - 15) =     15.85190  eV     1   --> A'             
     e( 16 - 16) =     17.30267  eV     1   --> A''            
     e( 17 - 17) =     17.85245  eV     1   --> A'             
     e( 18 - 18) =     17.90837  eV     1   --> A''            
     e( 19 - 19) =     18.52572  eV     1   --> A''            
     e( 20 - 20) =     19.21344  eV     1   --> A'             
     e( 21 - 21) =     20.46439  eV     1   --> A'             
     e( 22 - 22) =     21.21942  eV     1   --> A''            
     e( 23 - 23) =     21.97537  eV     1   --> A'             
     e( 24 - 24) =     26.50497  eV     1   --> A'             
     e( 25 - 25) =     28.69191  eV     1   --> A'             
     e( 26 - 26) =     30.49192  eV     1   --> A'             
     e( 27 - 27) =     32.10936  eV     1   --> A'             
     e( 28 - 28) =     32.95166  eV     1   --> A''            
     e( 29 - 29) =     33.65354  eV     1   --> A'             
     e( 30 - 30) =     34.97641  eV     1   --> A'             

 **************************************************************************

 **************************************************************************

                    xk=(  -0.32500,   0.18764,   0.00000  )

     Band symmetry, C_s (m)     point group:

     e(  1 -  1) =    -48.03105  eV     1   --> A'             
     e(  2 -  2) =    -47.96527  eV     1   --> A'             
     e(  3 -  3) =    -22.03807  eV     1   --> A'             
     e(  4 -  4) =    -22.00585  eV     1   --> A'             
     e(  5 -  5) =    -21.93208  eV     1   --> A'             
     e(  6 -  6) =    -21.84715  eV     1   --> A''            
     e(  7 -  7) =    -21.70552  eV     1   --> A''            
     e(  8 -  8) =    -21.65018  eV     1   --> A'             
     e(  9 -  9) =      5.03321  eV     1   --> A'             
     e( 10 - 10) =     10.84440  eV     1   --> A'             
     e( 11 - 11) =     12.08218  eV     1   --> A'             
     e( 12 - 12) =     13.11296  eV     1   --> A''            
     e( 13 - 13) =     13.85967  eV     1   --> A'             
     e( 14 - 14) =     14.71169  eV     1   --> A'             
     e( 15 - 15) =     15.82274  eV     1   --> A'             
     e( 16 - 16) =     17.11927  eV     1   --> A''            
     e( 17 - 17) =     17.68179  eV     1   --> A'             
     e( 18 - 18) =     17.76024  eV     1   --> A''            
     e( 19 - 19) =     18.48572  eV     1   --> A''            
     e( 20 - 20) =     19.20741  eV     1   --> A'             
     e( 21 - 21) =     20.59788  eV     1   --> A'             
     e( 22 - 22) =     21.41852  eV     1   --> A''            
     e( 23 - 23) =     21.69655  eV     1   --> A'             
     e( 24 - 24) =     26.95482  eV     1   --> A'             
     e( 25 - 25) =     28.80249  eV     1   --> A'             
     e( 26 - 26) =     30.39445  eV     1   --> A'             
     e( 27 - 27) =     32.45880  eV     1   --> A'             
     e( 28 - 28) =     32.96771  eV     1   --> A''            
     e( 29 - 29) =     33.70845  eV     1   --> A'             
     e( 30 - 30) =     34.94488  eV     1   --> A'             

 **************************************************************************

 **************************************************************************

                    xk=(  -0.30000,   0.17321,   0.00000  )

     Band symmetry, C_s (m)     point group:

     e(  1 -  1) =    -48.03772  eV     1   --> A'             
     e(  2 -  2) =    -47.96616  eV     1   --> A'             
     e(  3 -  3) =    -22.03372  eV     1   --> A'             
     e(  4 -  4) =    -22.00247  eV     1   --> A'             
     e(  5 -  5) =    -21.90729  eV     1   --> A'             
     e(  6 -  6) =    -21.83861  eV     1   --> A''            
     e(  7 -  7) =    -21.70179  eV     1   --> A''            
     e(  8 -  8) =    -21.63845  eV     1   --> A'             
     e(  9 -  9) =      4.88358  eV     1   --> A'             
     e( 10 - 10) =     11.02014  eV     1   --> A'             
     e( 11 - 11) =     11.95787  eV     1   --> A'             
     e( 12 - 12) =     13.16465  eV     1   --> A''            
     e( 13 - 13) =     13.96458  eV     1   --> A'             
     e( 14 - 14) =     14.75305  eV     1   --> A'             
     e( 15 - 15) =     15.81371  eV     1   --> A'             
     e( 16 - 16) =     16.94882  eV     1   --> A''            
     e( 17 - 17) =     17.52038  eV     1   --> A'             
     e( 18 - 18) =     17.60455  eV     1   --> A''            
     e( 19 - 19) =     18.43925  eV     1   --> A''            
     e( 20 - 20) =     19.17925  eV     1   --> A'             
     e( 21 - 21) =     20.65817  eV     1   --> A'             
     e( 22 - 22) =     21.50187  eV     1   --> A'             
     e( 23 - 23) =     21.60840  eV     1   --> A''            
     e( 24 - 24) =     27.41111  eV     1   --> A'             
     e( 25 - 25) =     28.89934  eV     1   --> A'             
     e( 26 - 26) =     30.21329  eV     1   --> A'             
     e( 27 - 27) =     32.79657  eV     1   --> A'             
     e( 28 - 28) =     32.99128  eV     1   --> A''            
     e( 29 - 29) =     33.89612  eV     1   --> A'             
     e( 30 - 30) =     34.97221  eV     1   --> A'             

 **************************************************************************

 **************************************************************************

                    xk=(  -0.27500,   0.15877,   0.00000  )

     Band symmetry, C_s (m)     point group:

     e(  1 -  1) =    -48.04450  eV     1   --> A'             
     e(  2 -  2) =    -47.96733  eV     1   --> A'             
     e(  3 -  3) =    -22.05108  eV     1   --> A'             
     e(  4 -  4) =    -21.97567  eV     1   --> A'             
     e(  5 -  5) =    -21.88100  eV     1   --> A'             
     e(  6 -  6) =    -21.82951  eV     1   --> A''            
     e(  7 -  7) =    -21.69797  eV     1   --> A''            
     e(  8 -  8) =    -21.62741  eV     1   --> A'             
     e(  9 -  9) =      4.72953  eV     1   --> A'             
     e( 10 - 10) =     11.21060  eV     1   --> A'             
     e( 11 - 11) =     11.81592  eV     1   --> A'             
     e( 12 - 12) =     13.21569  eV     1   --> A''            
     e( 13 - 13) =     14.06536  eV     1   --> A'             
     e( 14 - 14) =     14.82098  eV     1   --> A'             
     e( 15 - 15) =     15.82686  eV     1   --> A'             
     e( 16 - 16) =     16.79698  eV     1   --> A''            
     e( 17 - 17) =     17.36756  eV     1   --> A'             
     e( 18 - 18) =     17.44571  eV     1   --> A''            
     e( 19 - 19) =     18.38552  eV     1   --> A''            
     e( 20 - 20) =     19.11984  eV     1   --> A'             
     e( 21 - 21) =     20.60201  eV     1   --> A'             
     e( 22 - 22) =     21.44342  eV     1   --> A'             
     e( 23 - 23) =     21.78513  eV     1   --> A''            
     e( 24 - 24) =     27.84028  eV     1   --> A'             
     e( 25 - 25) =     29.01472  eV     1   --> A'             
     e( 26 - 26) =     29.96057  eV     1   --> A'             
     e( 27 - 27) =     33.02379  eV     1   --> A''            
     e( 28 - 28) =     33.05101  eV     1   --> A'             
     e( 29 - 29) =     34.26948  eV     1   --> A'             
     e( 30 - 30) =     35.06585  eV     1   --> A'             

 **************************************************************************

 **************************************************************************

                    xk=(  -0.25000,   0.14434,   0.00000  )

     Band symmetry, C_s (m)     point group:

     e(  1 -  1) =    -48.05126  eV     1   --> A'             
     e(  2 -  2) =    -47.96873  eV     1   --> A'             
     e(  3 -  3) =    -22.06975  eV     1   --> A'             
     e(  4 -  4) =    -21.94621  eV     1   --> A'             
     e(  5 -  5) =    -21.85382  eV     1   --> A'             
     e(  6 -  6) =    -21.82007  eV     1   --> A''            
     e(  7 -  7) =    -21.69415  eV     1   --> A''            
     e(  8 -  8) =    -21.61721  eV     1   --> A'             
     e(  9 -  9) =      4.57494  eV     1   --> A'             
     e( 10 - 10) =     11.40926  eV     1   --> A'             
     e( 11 - 11) =     11.66597  eV     1   --> A'             
     e( 12 - 12) =     13.26356  eV     1   --> A''            
     e( 13 - 13) =     14.15472  eV     1   --> A'             
     e( 14 - 14) =     14.91965  eV     1   --> A'             
     e( 15 - 15) =     15.86190  eV     1   --> A'             
     e( 16 - 16) =     16.66829  eV     1   --> A''            
     e( 17 - 17) =     17.22280  eV     1   --> A'             
     e( 18 - 18) =     17.28786  eV     1   --> A''            
     e( 19 - 19) =     18.32402  eV     1   --> A''            
     e( 20 - 20) =     19.02219  eV     1   --> A'             
     e( 21 - 21) =     20.45490  eV     1   --> A'             
     e( 22 - 22) =     21.50348  eV     1   --> A'             
     e( 23 - 23) =     21.94612  eV     1   --> A''            
     e( 24 - 24) =     28.16704  eV     1   --> A'             
     e( 25 - 25) =     29.22074  eV     1   --> A'             
     e( 26 - 26) =     29.65726  eV     1   --> A'             
     e( 27 - 27) =     33.06652  eV     1   --> A''            
     e( 28 - 28) =     33.23857  eV     1   --> A'             
     e( 29 - 29) =     34.76274  eV     1   --> A'             
     e( 30 - 30) =     35.25315  eV     1   --> A'             

 **************************************************************************

 **************************************************************************

                    xk=(  -0.22500,   0.12990,   0.00000  )

     Band symmetry, C_s (m)     point group:

     e(  1 -  1) =    -48.05784  eV     1   --> A'             
     e(  2 -  2) =    -47.97028  eV     1   --> A'             
     e(  3 -  3) =    -22.08784  eV     1   --> A'             
     e(  4 -  4) =    -21.91643  eV     1   --> A'             
     e(  5 -  5) =    -21.82642  eV     1   --> A'             
     e(  6 -  6) =    -21.81048  eV     1   --> A''            
     e(  7 -  7) =    -21.69046  eV     1   --> A''            
     e(  8 -  8) =    -21.60795  eV     1   --> A'             
     e(  9 -  9) =      4.42342  eV     1   --> A'             
     e( 10 - 10) =     11.47165  eV     1   --> A'             
     e( 11 - 11) =     11.65663  eV     1   --> A'             
     e( 12 - 12) =     13.30581  eV     1   --> A''            
     e( 13 - 13) =     14.22758  eV     1   --> A'             
     e( 14 - 14) =     15.04935  eV     1   --> A'             
     e( 15 - 15) =     15.91672  eV     1   --> A'             
     e( 16 - 16) =     16.56616  eV     1   --> A''            
     e( 17 - 17) =     17.08560  eV     1   --> A'             
     e( 18 - 18) =     17.13480  eV     1   --> A''            
     e( 19 - 19) =     18.25451  eV     1   --> A''            
     e( 20 - 20) =     18.88479  eV     1   --> A'             
     e( 21 - 21) =     20.28120  eV     1   --> A'             
     e( 22 - 22) =     21.62104  eV     1   --> A'             
     e( 23 - 23) =     22.08963  eV     1   --> A''            
     e( 24 - 24) =     28.32557  eV     1   --> A'             
     e( 25 - 25) =     29.27527  eV     1   --> A'             
     e( 26 - 26) =     29.63201  eV     1   --> A'             
     e( 27 - 27) =     33.12018  eV     1   --> A''            
     e( 28 - 28) =     33.40763  eV     1   --> A'             
     e( 29 - 29) =     35.18036  eV     1   --> A'             
     e( 30 - 30) =     35.64853  eV     1   --> A'             

 **************************************************************************

 **************************************************************************

                    xk=(  -0.20000,   0.11547,   0.00000  )

     Band symmetry, C_s (m)     point group:

     e(  1 -  1) =    -48.06413  eV     1   --> A'             
     e(  2 -  2) =    -47.97193  eV     1   --> A'             
     e(  3 -  3) =    -22.10485  eV     1   --> A'             
     e(  4 -  4) =    -21.88728  eV     1   --> A'             
     e(  5 -  5) =    -21.80096  eV     1   --> A''            
     e(  6 -  6) =    -21.79944  eV     1   --> A'             
     e(  7 -  7) =    -21.68701  eV     1   --> A''            
     e(  8 -  8) =    -21.59967  eV     1   --> A'             
     e(  9 -  9) =      4.27835  eV     1   --> A'             
     e( 10 - 10) =     11.31895  eV     1   --> A'             
     e( 11 - 11) =     11.87077  eV     1   --> A'             
     e( 12 - 12) =     13.34055  eV     1   --> A''            
     e( 13 - 13) =     14.28210  eV     1   --> A'             
     e( 14 - 14) =     15.20571  eV     1   --> A'             
     e( 15 - 15) =     15.98800  eV     1   --> A'             
     e( 16 - 16) =     16.49267  eV     1   --> A''            
     e( 17 - 17) =     16.95560  eV     1   --> A'             
     e( 18 - 18) =     16.99008  eV     1   --> A''            
     e( 19 - 19) =     18.17713  eV     1   --> A''            
     e( 20 - 20) =     18.71363  eV     1   --> A'             
     e( 21 - 21) =     20.11153  eV     1   --> A'             
     e( 22 - 22) =     21.76215  eV     1   --> A'             
     e( 23 - 23) =     22.21493  eV     1   --> A''            
     e( 24 - 24) =     28.35846  eV     1   --> A'             
     e( 25 - 25) =     28.91889  eV     1   --> A'             
     e( 26 - 26) =     30.12073  eV     1   --> A'             
     e( 27 - 27) =     33.18485  eV     1   --> A''            
     e( 28 - 28) =     33.58342  eV     1   --> A'             
     e( 29 - 29) =     35.45631  eV     1   --> A'             
     e( 30 - 30) =     36.24423  eV     1   --> A'             

 **************************************************************************

 **************************************************************************

                    xk=(  -0.17500,   0.10104,   0.00000  )

     Band symmetry, C_s (m)     point group:

     e(  1 -  1) =    -48.06999  eV     1   --> A'             
     e(  2 -  2) =    -47.97360  eV     1   --> A'             
     e(  3 -  3) =    -22.12048  eV     1   --> A'             
     e(  4 -  4) =    -21.85955  eV     1   --> A'             
     e(  5 -  5) =    -21.79176  eV     1   --> A''            
     e(  6 -  6) =    -21.77358  eV     1   --> A'             
     e(  7 -  7) =    -21.68387  eV     1   --> A''            
     e(  8 -  8) =    -21.59242  eV     1   --> A'             
     e(  9 -  9) =      4.14280  eV     1   --> A'             
     e( 10 - 10) =     11.16158  eV     1   --> A'             
     e( 11 - 11) =     12.10137  eV     1   --> A'             
     e( 12 - 12) =     13.36652  eV     1   --> A''            
     e( 13 - 13) =     14.31817  eV     1   --> A'             
     e( 14 - 14) =     15.38135  eV     1   --> A'             
     e( 15 - 15) =     16.07142  eV     1   --> A'             
     e( 16 - 16) =     16.44804  eV     1   --> A''            
     e( 17 - 17) =     16.83278  eV     1   --> A'             
     e( 18 - 18) =     16.85706  eV     1   --> A''            
     e( 19 - 19) =     18.09251  eV     1   --> A''            
     e( 20 - 20) =     18.52099  eV     1   --> A'             
     e( 21 - 21) =     19.95167  eV     1   --> A'             
     e( 22 - 22) =     21.91246  eV     1   --> A'             
     e( 23 - 23) =     22.32177  eV     1   --> A''            
     e( 24 - 24) =     28.32875  eV     1   --> A'             
     e( 25 - 25) =     28.55233  eV     1   --> A'             
     e( 26 - 26) =     30.67422  eV     1   --> A'             
     e( 27 - 27) =     33.25966  eV     1   --> A''            
     e( 28 - 28) =     33.77798  eV     1   --> A'             
     e( 29 - 29) =     35.68157  eV     1   --> A'             
     e( 30 - 30) =     36.85390  eV     1   --> A'             

 **************************************************************************

 **************************************************************************

                    xk=(  -0.15000,   0.08660,   0.00000  )

     Band symmetry, C_s (m)     point group:

     e(  1 -  1) =    -48.07532  eV     1   --> A'             
     e(  2 -  2) =    -47.97522  eV     1   --> A'             
     e(  3 -  3) =    -22.13449  eV     1   --> A'             
     e(  4 -  4) =    -21.83395  eV     1   --> A'             
     e(  5 -  5) =    -21.78309  eV     1   --> A''            
     e(  6 -  6) =    -21.74951  eV     1   --> A'             
     e(  7 -  7) =    -21.68114  eV     1   --> A''            
     e(  8 -  8) =    -21.58619  eV     1   --> A'             
     e(  9 -  9) =      4.01956  eV     1   --> A'             
     e( 10 - 10) =     11.01374  eV     1   --> A'             
     e( 11 - 11) =     12.33639  eV     1   --> A'             
     e( 12 - 12) =     13.38362  eV     1   --> A''            
     e( 13 - 13) =     14.33567  eV     1   --> A'             
     e( 14 - 14) =     15.56775  eV     1   --> A'             
     e( 15 - 15) =     16.16142  eV     1   --> A'             
     e( 16 - 16) =     16.42991  eV     1   --> A''            
     e( 17 - 17) =     16.71824  eV     1   --> A'             
     e( 18 - 18) =     16.73941  eV     1   --> A''            
     e( 19 - 19) =     18.00194  eV     1   --> A''            
     e( 20 - 20) =     18.32123  eV     1   --> A'             
     e( 21 - 21) =     19.79976  eV     1   --> A'             
     e( 22 - 22) =     22.06405  eV     1   --> A'             
     e( 23 - 23) =     22.41068  eV     1   --> A''            
     e( 24 - 24) =     28.16556  eV     1   --> A'             
     e( 25 - 25) =     28.30538  eV     1   --> A'             
     e( 26 - 26) =     31.24197  eV     1   --> A'             
     e( 27 - 27) =     33.34226  eV     1   --> A''            
     e( 28 - 28) =     34.00050  eV     1   --> A'             
     e( 29 - 29) =     35.82948  eV     1   --> A'             
     e( 30 - 30) =     37.35478  eV     1   --> A'             

 **************************************************************************

 **************************************************************************

                    xk=(  -0.12500,   0.07217,   0.00000  )

     Band symmetry, C_s (m)     point group:

     e(  1 -  1) =    -48.08001  eV     1   --> A'             
     e(  2 -  2) =    -47.97672  eV     1   --> A'             
     e(  3 -  3) =    -22.14667  eV     1   --> A'             
     e(  4 -  4) =    -21.81112  eV     1   --> A'             
     e(  5 -  5) =    -21.77521  eV     1   --> A''            
     e(  6 -  6) =    -21.72787  eV     1   --> A'             
     e(  7 -  7) =    -21.67886  eV     1   --> A''            
     e(  8 -  8) =    -21.58098  eV     1   --> A'             
     e(  9 -  9) =      3.91106  eV     1   --> A'             
     e( 10 - 10) =     10.88103  eV     1   --> A'             
     e( 11 - 11) =     12.57089  eV     1   --> A'             
     e( 12 - 12) =     13.39281  eV     1   --> A''            
     e( 13 - 13) =     14.33377  eV     1   --> A'             
     e( 14 - 14) =     15.75596  eV     1   --> A'             
     e( 15 - 15) =     16.24954  eV     1   --> A'             
     e( 16 - 16) =     16.43143  eV     1   --> A''            
     e( 17 - 17) =     16.61657  eV     1   --> A'             
     e( 18 - 18) =     16.64282  eV     1   --> A''            
     e( 19 - 19) =     17.90766  eV     1   --> A''            
     e( 20 - 20) =     18.12761  eV     1   --> A'             
     e( 21 - 21) =     19.65440  eV     1   --> A'             
     e( 22 - 22) =     22.21078  eV     1   --> A'             
     e( 23 - 23) =     22.48268  eV     1   --> A''            
     e( 24 - 24) =     27.83860  eV     1   --> A'             
     e( 25 - 25) =     28.23965  eV     1   --> A'             
     e( 26 - 26) =     31.79544  eV     1   --> A'             
     e( 27 - 27) =     33.42890  eV     1   --> A''            
     e( 28 - 28) =     34.25603  eV     1   --> A'             
     e( 29 - 29) =     35.84170  eV     1   --> A'             
     e( 30 - 30) =     37.72505  eV     1   --> A'             

 **************************************************************************

 **************************************************************************

                    xk=(  -0.10000,   0.05774,   0.00000  )

     Band symmetry, C_s (m)     point group:

     e(  1 -  1) =    -48.08399  eV     1   --> A'             
     e(  2 -  2) =    -47.97804  eV     1   --> A'             
     e(  3 -  3) =    -22.15687  eV     1   --> A'             
     e(  4 -  4) =    -21.79161  eV     1   --> A'             
     e(  5 -  5) =    -21.76833  eV     1   --> A''            
     e(  6 -  6) =    -21.70925  eV     1   --> A'             
     e(  7 -  7) =    -21.67704  eV     1   --> A''            
     e(  8 -  8) =    -21.57677  eV     1   --> A'             
     e(  9 -  9) =      3.81936  eV     1   --> A'             
     e( 10 - 10) =     10.76739  eV     1   --> A'             
     e( 11 - 11) =     12.79901  eV     1   --> A'             
     e( 12 - 12) =     13.39577  eV     1   --> A''            
     e( 13 - 13) =     14.31141  eV     1   --> A'             
     e( 14 - 14) =     15.93623  eV     1   --> A'             
     e( 15 - 15) =     16.31624  eV     1   --> A'             
     e( 16 - 16) =     16.43461  eV     1   --> A''            
     e( 17 - 17) =     16.54446  eV     1   --> A'             
     e( 18 - 18) =     16.58155  eV     1   --> A''            
     e( 19 - 19) =     17.81318  eV     1   --> A''            
     e( 20 - 20) =     17.95078  eV     1   --> A'             
     e( 21 - 21) =     19.51736  eV     1   --> A'             
     e( 22 - 22) =     22.34599  eV     1   --> A'             
     e( 23 - 23) =     22.53882  eV     1   --> A''            
     e( 24 - 24) =     27.54020  eV     1   --> A'             
     e( 25 - 25) =     28.18473  eV     1   --> A'             
     e( 26 - 26) =     32.31238  eV     1   --> A'             
     e( 27 - 27) =     33.51420  eV     1   --> A''            
     e( 28 - 28) =     34.52691  eV     1   --> A'             
     e( 29 - 29) =     35.74231  eV     1   --> A'             
     e( 30 - 30) =     38.04571  eV     1   --> A''            

 **************************************************************************

 **************************************************************************

                    xk=(  -0.07500,   0.04330,   0.00000  )

     Band symmetry, C_s (m)     point group:

     e(  1 -  1) =    -48.08716  eV     1   --> A'             
     e(  2 -  2) =    -47.97912  eV     1   --> A'             
     e(  3 -  3) =    -22.16495  eV     1   --> A'             
     e(  4 -  4) =    -21.77590  eV     1   --> A'             
     e(  5 -  5) =    -21.76269  eV     1   --> A''            
     e(  6 -  6) =    -21.69419  eV     1   --> A'             
     e(  7 -  7) =    -21.67568  eV     1   --> A''            
     e(  8 -  8) =    -21.57354  eV     1   --> A'             
     e(  9 -  9) =      3.74625  eV     1   --> A'             
     e( 10 - 10) =     10.67600  eV     1   --> A'             
     e( 11 - 11) =     13.01280  eV     1   --> A'             
     e( 12 - 12) =     13.39493  eV     1   --> A''            
     e( 13 - 13) =     14.26903  eV     1   --> A'             
     e( 14 - 14) =     16.09757  eV     1   --> A'             
     e( 15 - 15) =     16.32116  eV     1   --> A'             
     e( 16 - 16) =     16.41218  eV     1   --> A''            
     e( 17 - 17) =     16.54057  eV     1   --> A'             
     e( 18 - 18) =     16.57654  eV     1   --> A''            
     e( 19 - 19) =     17.72392  eV     1   --> A''            
     e( 20 - 20) =     17.79920  eV     1   --> A'             
     e( 21 - 21) =     19.39455  eV     1   --> A'             
     e( 22 - 22) =     22.46285  eV     1   --> A'             
     e( 23 - 23) =     22.58080  eV     1   --> A''            
     e( 24 - 24) =     27.29028  eV     1   --> A'             
     e( 25 - 25) =     28.13858  eV     1   --> A'             
     e( 26 - 26) =     32.77795  eV     1   --> A'             
     e( 27 - 27) =     33.59178  eV     1   --> A''            
     e( 28 - 28) =     34.70898  eV     1   --> A'             
     e( 29 - 29) =     35.70128  eV     1   --> A'             
     e( 30 - 30) =     37.96191  eV     1   --> A''            

 **************************************************************************

 **************************************************************************

                    xk=(  -0.05000,   0.02887,   0.00000  )

     Band symmetry, C_s (m)     point group:

     e(  1 -  1) =    -48.08947  eV     1   --> A'             
     e(  2 -  2) =    -47.97993  eV     1   --> A'             
     e(  3 -  3) =    -22.17079  eV     1   --> A'             
     e(  4 -  4) =    -21.76439  eV     1   --> A'             
     e(  5 -  5) =    -21.75848  eV     1   --> A''            
     e(  6 -  6) =    -21.68311  eV     1   --> A'             
     e(  7 -  7) =    -21.67475  eV     1   --> A''            
     e(  8 -  8) =    -21.57126  eV     1   --> A'             
     e(  9 -  9) =      3.69304  eV     1   --> A'             
     e( 10 - 10) =     10.60915  eV     1   --> A'             
     e( 11 - 11) =     13.19939  eV     1   --> A'             
     e( 12 - 12) =     13.39238  eV     1   --> A''            
     e( 13 - 13) =     14.21174  eV     1   --> A'             
     e( 14 - 14) =     16.22739  eV     1   --> A'             
     e( 15 - 15) =     16.28038  eV     1   --> A'             
     e( 16 - 16) =     16.37696  eV     1   --> A''            
     e( 17 - 17) =     16.58720  eV     1   --> A'             
     e( 18 - 18) =     16.60582  eV     1   --> A''            
     e( 19 - 19) =     17.64771  eV     1   --> A''            
     e( 20 - 20) =     17.68046  eV     1   --> A'             
     e( 21 - 21) =     19.29499  eV     1   --> A'             
     e( 22 - 22) =     22.55392  eV     1   --> A'             
     e( 23 - 23) =     22.60966  eV     1   --> A''            
     e( 24 - 24) =     27.10106  eV     1   --> A'             
     e( 25 - 25) =     28.10381  eV     1   --> A'             
     e( 26 - 26) =     33.18699  eV     1   --> A'             
     e( 27 - 27) =     33.65435  eV     1   --> A''            
     e( 28 - 28) =     34.63958  eV     1   --> A'             
     e( 29 - 29) =     35.92571  eV     1   --> A'             
     e( 30 - 30) =     37.89155  eV     1   --> A''            

 **************************************************************************

 **************************************************************************

                    xk=(  -0.02500,   0.01443,   0.00000  )

     Band symmetry, C_s (m)     point group:

     e(  1 -  1) =    -48.09087  eV     1   --> A'             
     e(  2 -  2) =    -47.98043  eV     1   --> A'             
     e(  3 -  3) =    -22.17433  eV     1   --> A'             
     e(  4 -  4) =    -21.75737  eV     1   --> A'             
     e(  5 -  5) =    -21.75588  eV     1   --> A''            
     e(  6 -  6) =    -21.67633  eV     1   --> A'             
     e(  7 -  7) =    -21.67422  eV     1   --> A''            
     e(  8 -  8) =    -21.56991  eV     1   --> A'             
     e(  9 -  9) =      3.66073  eV     1   --> A'             
     e( 10 - 10) =     10.56845  eV     1   --> A'             
     e( 11 - 11) =     13.33630  eV     1   --> A'             
     e( 12 - 12) =     13.39007  eV     1   --> A''            
     e( 13 - 13) =     14.15535  eV     1   --> A'             
     e( 14 - 14) =     16.24418  eV     1   --> A'             
     e( 15 - 15) =     16.31256  eV     1   --> A'             
     e( 16 - 16) =     16.35136  eV     1   --> A''            
     e( 17 - 17) =     16.63067  eV     1   --> A'             
     e( 18 - 18) =     16.63552  eV     1   --> A''            
     e( 19 - 19) =     17.59489  eV     1   --> A''            
     e( 20 - 20) =     17.60299  eV     1   --> A'             
     e( 21 - 21) =     19.22928  eV     1   --> A'             
     e( 22 - 22) =     22.61206  eV     1   --> A'             
     e( 23 - 23) =     22.62657  eV     1   --> A''            
     e( 24 - 24) =     26.98274  eV     1   --> A'             
     e( 25 - 25) =     28.08233  eV     1   --> A'             
     e( 26 - 26) =     33.53050  eV     1   --> A'             
     e( 27 - 27) =     33.69522  eV     1   --> A''            
     e( 28 - 28) =     34.41661  eV     1   --> A'             
     e( 29 - 29) =     36.30459  eV     1   --> A'             
     e( 30 - 30) =     37.84552  eV     1   --> A''            

 **************************************************************************

 **************************************************************************

                    xk=(   0.00000,   0.00000,   0.00000  )

     point group D_3d (-3m) 
     there are  6 classes
     the character table:

       E     2C3   3C2'  i     2S6   3s_d 
A_1g   1.00  1.00  1.00  1.00  1.00  1.00
A_2g   1.00  1.00 -1.00  1.00  1.00 -1.00
E_g    2.00 -1.00  0.00  2.00 -1.00  0.00
A_1u   1.00  1.00  1.00 -1.00 -1.00 -1.00
A_2u   1.00  1.00 -1.00 -1.00 -1.00  1.00
E_u    2.00 -1.00  0.00 -2.00  1.00  0.00

     the symmetry operations in each class and the name of the first element:

     E        1
                                                                 
     2C3      3    4
                                                                 
     3C2'     2    5    6
                                                                 
     i        7
                                                                 
     2S6      9   10
                                                                 
     3s_d     8   11   12
                                                                 

     Band symmetry, D_3d (-3m)  point group:

     e(  1 -  1) =    -48.09134  eV     1   --> A_1g L_1       
     e(  2 -  2) =    -47.98060  eV     1   --> A_2u L_2'      
     e(  3 -  3) =    -22.17552  eV     1   --> A_1g L_1       
     e(  4 -  5) =    -21.75500  eV     2   --> E_g  L_3       
     e(  6 -  7) =    -21.67405  eV     2   --> E_u  L_3'      
     e(  8 -  8) =    -21.56946  eV     1   --> A_2u L_2'      
     e(  9 -  9) =      3.64989  eV     1   --> A_1g L_1       
     e( 10 - 10) =     10.55477  eV     1   --> A_2u L_2'      
     e( 11 - 12) =     13.38915  eV     2   --> E_u  L_3'      
     e( 13 - 13) =     14.12987  eV     1   --> A_1g L_1       
     e( 14 - 14) =     16.23076  eV     1   --> A_1g L_1       
     e( 15 - 16) =     16.34235  eV     2   --> E_g  L_3       
     e( 17 - 18) =     16.64752  eV     2   --> E_g  L_3       
     e( 19 - 20) =     17.57575  eV     2   --> E_u  L_3'      
     e( 21 - 21) =     19.20616  eV     1   --> A_2u L_2'      
     e( 22 - 23) =     22.63213  eV     2   --> E_u  L_3'      
     e( 24 - 24) =     26.94243  eV     1   --> A_1g L_1       
     e( 25 - 25) =     28.07504  eV     1   --> A_2u L_2'      
     e( 26 - 27) =     33.70945  eV     2   --> E_g  L_3       
     e( 28 - 28) =     34.26684  eV     1   --> A_2u L_2'      
     e( 29 - 29) =     36.52499  eV     1   --> A_1g L_1       
     e( 30 - 30) =     37.82955  eV     1   -->   ?

 **************************************************************************

 **************************************************************************

                    xk=(   0.01667,   0.00962,   0.01067  )

     point group C_s (m)    
     there are  2 classes
     the character table:

       E     s    
A'     1.00  1.00
A''    1.00 -1.00

     the symmetry operations in each class and the name of the first element:

     E        1
                                                                 
     s        2
                                                                 

     Band symmetry, C_s (m)     point group:

     e(  1 -  1) =    -48.09106  eV     1   --> A'             
     e(  2 -  2) =    -47.98060  eV     1   --> A'             
     e(  3 -  3) =    -22.17459  eV     1   --> A'             
     e(  4 -  4) =    -21.75596  eV     1   --> A'             
     e(  5 -  5) =    -21.75538  eV     1   --> A''            
     e(  6 -  6) =    -21.67516  eV     1   --> A'             
     e(  7 -  7) =    -21.67414  eV     1   --> A''            
     e(  8 -  8) =    -21.57009  eV     1   --> A'             
     e(  9 -  9) =      3.65560  eV     1   --> A'             
     e( 10 - 10) =     10.55820  eV     1   --> A'             
     e( 11 - 11) =     13.36610  eV     1   --> A'             
     e( 12 - 12) =     13.38704  eV     1   --> A''            
     e( 13 - 13) =     14.14341  eV     1   --> A'             
     e( 14 - 14) =     16.23461  eV     1   --> A'             
     e( 15 - 15) =     16.32948  eV     1   --> A'             
     e( 16 - 16) =     16.34525  eV     1   --> A''            
     e( 17 - 17) =     16.63332  eV     1   --> A'             
     e( 18 - 18) =     16.64967  eV     1   --> A''            
     e( 19 - 19) =     17.58439  eV     1   --> A''            
     e( 20 - 20) =     17.59270  eV     1   --> A'             
     e( 21 - 21) =     19.22059  eV     1   --> A'             
     e( 22 - 22) =     22.62224  eV     1   --> A''            
     e( 23 - 23) =     22.62604  eV     1   --> A'             
     e( 24 - 24) =     26.94802  eV     1   --> A'             
     e( 25 - 25) =     28.08919  eV     1   --> A'             
     e( 26 - 26) =     33.61045  eV     1   --> A'             
     e( 27 - 27) =     33.71770  eV     1   --> A''            
     e( 28 - 28) =     34.33015  eV     1   --> A'             
     e( 29 - 29) =     36.42776  eV     1   --> A'             
     e( 30 - 30) =     37.82335  eV     1   --> A''            

 **************************************************************************

 **************************************************************************

                    xk=(   0.03333,   0.01925,   0.02135  )

     Band symmetry, C_s (m)     point group:

     e(  1 -  1) =    -48.09021  eV     1   --> A'             
     e(  2 -  2) =    -47.98060  eV     1   --> A'             
     e(  3 -  3) =    -22.17183  eV     1   --> A'             
     e(  4 -  4) =    -21.75881  eV     1   --> A'             
     e(  5 -  5) =    -21.75650  eV     1   --> A''            
     e(  6 -  6) =    -21.67852  eV     1   --> A'             
     e(  7 -  7) =    -21.67441  eV     1   --> A''            
     e(  8 -  8) =    -21.57193  eV     1   --> A'             
     e(  9 -  9) =      3.67264  eV     1   --> A'             
     e( 10 - 10) =     10.56843  eV     1   --> A'             
     e( 11 - 11) =     13.30211  eV     1   --> A'             
     e( 12 - 12) =     13.38077  eV     1   --> A''            
     e( 13 - 13) =     14.17905  eV     1   --> A'             
     e( 14 - 14) =     16.23581  eV     1   --> A'             
     e( 15 - 15) =     16.30223  eV     1   --> A'             
     e( 16 - 16) =     16.35401  eV     1   --> A''            
     e( 17 - 17) =     16.59420  eV     1   --> A'             
     e( 18 - 18) =     16.65643  eV     1   --> A''            
     e( 19 - 19) =     17.60968  eV     1   --> A''            
     e( 20 - 20) =     17.64008  eV     1   --> A'             
     e( 21 - 21) =     19.26267  eV     1   --> A'             
     e( 22 - 22) =     22.59290  eV     1   --> A''            
     e( 23 - 23) =     22.60811  eV     1   --> A'             
     e( 24 - 24) =     26.96462  eV     1   --> A'             
     e( 25 - 25) =     28.13135  eV     1   --> A'             
     e( 26 - 26) =     33.39258  eV     1   --> A'             
     e( 27 - 27) =     33.74193  eV     1   --> A''            
     e( 28 - 28) =     34.42551  eV     1   --> A'             
     e( 29 - 29) =     36.24190  eV     1   --> A'             
     e( 30 - 30) =     37.80534  eV     1   --> A''            

 **************************************************************************

 **************************************************************************

                    xk=(   0.05000,   0.02887,   0.03202  )

     Band symmetry, C_s (m)     point group:

     e(  1 -  1) =    -48.08880  eV     1   --> A'             
     e(  2 -  2) =    -47.98061  eV     1   --> A'             
     e(  3 -  3) =    -22.16727  eV     1   --> A'             
     e(  4 -  4) =    -21.76351  eV     1   --> A'             
     e(  5 -  5) =    -21.75833  eV     1   --> A''            
     e(  6 -  6) =    -21.68418  eV     1   --> A'             
     e(  7 -  7) =    -21.67490  eV     1   --> A''            
     e(  8 -  8) =    -21.57487  eV     1   --> A'             
     e(  9 -  9) =      3.70083  eV     1   --> A'             
     e( 10 - 10) =     10.58547  eV     1   --> A'             
     e( 11 - 11) =     13.20788  eV     1   --> A'             
     e( 12 - 12) =     13.37056  eV     1   --> A''            
     e( 13 - 13) =     14.22659  eV     1   --> A'             
     e( 14 - 14) =     16.18982  eV     1   --> A'             
     e( 15 - 15) =     16.30757  eV     1   --> A'             
     e( 16 - 16) =     16.36878  eV     1   --> A''            
     e( 17 - 17) =     16.53828  eV     1   --> A'             
     e( 18 - 18) =     16.66866  eV     1   --> A''            
     e( 19 - 19) =     17.64987  eV     1   --> A''            
     e( 20 - 20) =     17.70996  eV     1   --> A'             
     e( 21 - 21) =     19.32949  eV     1   --> A'             
     e( 22 - 22) =     22.54522  eV     1   --> A''            
     e( 23 - 23) =     22.57917  eV     1   --> A'             
     e( 24 - 24) =     26.99169  eV     1   --> A'             
     e( 25 - 25) =     28.20102  eV     1   --> A'             
     e( 26 - 26) =     33.12431  eV     1   --> A'             
     e( 27 - 27) =     33.78055  eV     1   --> A''            
     e( 28 - 28) =     34.44569  eV     1   --> A'             
     e( 29 - 29) =     36.11151  eV     1   --> A'             
     e( 30 - 30) =     37.77710  eV     1   --> A''            

 **************************************************************************

 **************************************************************************

                    xk=(   0.06667,   0.03849,   0.04269  )

     Band symmetry, C_s (m)     point group:

     e(  1 -  1) =    -48.08686  eV     1   --> A'             
     e(  2 -  2) =    -47.98062  eV     1   --> A'             
     e(  3 -  3) =    -22.16101  eV     1   --> A'             
     e(  4 -  4) =    -21.76995  eV     1   --> A'             
     e(  5 -  5) =    -21.76080  eV     1   --> A''            
     e(  6 -  6) =    -21.69221  eV     1   --> A'             
     e(  7 -  7) =    -21.67564  eV     1   --> A''            
     e(  8 -  8) =    -21.57874  eV     1   --> A'             
     e(  9 -  9) =      3.73982  eV     1   --> A'             
     e( 10 - 10) =     10.60916  eV     1   --> A'             
     e( 11 - 11) =     13.09310  eV     1   --> A'             
     e( 12 - 12) =     13.35672  eV     1   --> A''            
     e( 13 - 13) =     14.27709  eV     1   --> A'             
     e( 14 - 14) =     16.10404  eV     1   --> A'             
     e( 15 - 15) =     16.33831  eV     1   --> A'             
     e( 16 - 16) =     16.38985  eV     1   --> A''            
     e( 17 - 17) =     16.47706  eV     1   --> A'             
     e( 18 - 18) =     16.68741  eV     1   --> A''            
     e( 19 - 19) =     17.70235  eV     1   --> A''            
     e( 20 - 20) =     17.79421  eV     1   --> A'             
     e( 21 - 21) =     19.41665  eV     1   --> A'             
     e( 22 - 22) =     22.48086  eV     1   --> A''            
     e( 23 - 23) =     22.54052  eV     1   --> A'             
     e( 24 - 24) =     27.02848  eV     1   --> A'             
     e( 25 - 25) =     28.29690  eV     1   --> A'             
     e( 26 - 26) =     32.82268  eV     1   --> A'             
     e( 27 - 27) =     33.83080  eV     1   --> A''            
     e( 28 - 28) =     34.35090  eV     1   --> A'             
     e( 29 - 29) =     36.09952  eV     1   --> A'             
     e( 30 - 30) =     37.74088  eV     1   --> A''            

 **************************************************************************

 **************************************************************************

                    xk=(   0.08333,   0.04811,   0.05337  )

     Band symmetry, C_s (m)     point group:

     e(  1 -  1) =    -48.08439  eV     1   --> A'             
     e(  2 -  2) =    -47.98063  eV     1   --> A'             
     e(  3 -  3) =    -22.15315  eV     1   --> A'             
     e(  4 -  4) =    -21.77803  eV     1   --> A'             
     e(  5 -  5) =    -21.76383  eV     1   --> A''            
     e(  6 -  6) =    -21.70265  eV     1   --> A'             
     e(  7 -  7) =    -21.67667  eV     1   --> A''            
     e(  8 -  8) =    -21.58335  eV     1   --> A'             
     e(  9 -  9) =      3.78915  eV     1   --> A'             
     e( 10 - 10) =     10.63922  eV     1   --> A'             
     e( 11 - 11) =     12.96477  eV     1   --> A'             
     e( 12 - 12) =     13.33970  eV     1   --> A''            
     e( 13 - 13) =     14.32459  eV     1   --> A'             
     e( 14 - 14) =     16.00016  eV     1   --> A'             
     e( 15 - 15) =     16.34627  eV     1   --> A'             
     e( 16 - 16) =     16.41760  eV     1   --> A''            
     e( 17 - 17) =     16.44732  eV     1   --> A'             
     e( 18 - 18) =     16.71360  eV     1   --> A''            
     e( 19 - 19) =     17.76402  eV     1   --> A''            
     e( 20 - 20) =     17.88638  eV     1   --> A'             
     e( 21 - 21) =     19.51914  eV     1   --> A'             
     e( 22 - 22) =     22.40215  eV     1   --> A''            
     e( 23 - 23) =     22.49411  eV     1   --> A'             
     e( 24 - 24) =     27.07413  eV     1   --> A'             
     e( 25 - 25) =     28.41705  eV     1   --> A'             
     e( 26 - 26) =     32.49037  eV     1   --> A'             
     e( 27 - 27) =     33.88874  eV     1   --> A''            
     e( 28 - 28) =     34.17069  eV     1   --> A'             
     e( 29 - 29) =     36.18083  eV     1   --> A'             
     e( 30 - 30) =     37.69922  eV     1   --> A''            

 **************************************************************************

 **************************************************************************

                    xk=(   0.10000,   0.05774,   0.06404  )

     Band symmetry, C_s (m)     point group:

     e(  1 -  1) =    -48.08143  eV     1   --> A'             
     e(  2 -  2) =    -47.98064  eV     1   --> A'             
     e(  3 -  3) =    -22.14385  eV     1   --> A'             
     e(  4 -  4) =    -21.78758  eV     1   --> A'             
     e(  5 -  5) =    -21.76733  eV     1   --> A''            
     e(  6 -  6) =    -21.71551  eV     1   --> A'             
     e(  7 -  7) =    -21.67803  eV     1   --> A''            
     e(  8 -  8) =    -21.58851  eV     1   --> A'             
     e(  9 -  9) =      3.84823  eV     1   --> A'             
     e( 10 - 10) =     10.67542  eV     1   --> A'             
     e( 11 - 11) =     12.82776  eV     1   --> A'             
     e( 12 - 12) =     13.32002  eV     1   --> A''            
     e( 13 - 13) =     14.36548  eV     1   --> A'             
     e( 14 - 14) =     15.88637  eV     1   --> A'             
     e( 15 - 15) =     16.29070  eV     1   --> A'             
     e( 16 - 16) =     16.45249  eV     1   --> A''            
     e( 17 - 17) =     16.48989  eV     1   --> A'             
     e( 18 - 18) =     16.74781  eV     1   --> A''            
     e( 19 - 19) =     17.83154  eV     1   --> A''            
     e( 20 - 20) =     17.98172  eV     1   --> A'             
     e( 21 - 21) =     19.63231  eV     1   --> A'             
     e( 22 - 22) =     22.31187  eV     1   --> A''            
     e( 23 - 23) =     22.44222  eV     1   --> A'             
     e( 24 - 24) =     27.12783  eV     1   --> A'             
     e( 25 - 25) =     28.55891  eV     1   --> A'             
     e( 26 - 26) =     32.12840  eV     1   --> A'             
     e( 27 - 27) =     33.94911  eV     1   --> A''            
     e( 28 - 28) =     33.95742  eV     1   --> A'             
     e( 29 - 29) =     36.29212  eV     1   --> A'             
     e( 30 - 30) =     37.65471  eV     1   --> A''            

 **************************************************************************

 **************************************************************************

                    xk=(   0.11667,   0.06736,   0.07471  )

     Band symmetry, C_s (m)     point group:

     e(  1 -  1) =    -48.07801  eV     1   --> A'             
     e(  2 -  2) =    -47.98066  eV     1   --> A'             
     e(  3 -  3) =    -22.13330  eV     1   --> A'             
     e(  4 -  4) =    -21.79842  eV     1   --> A'             
     e(  5 -  5) =    -21.77122  eV     1   --> A''            
     e(  6 -  6) =    -21.73069  eV     1   --> A'             
     e(  7 -  7) =    -21.67976  eV     1   --> A''            
     e(  8 -  8) =    -21.59408  eV     1   --> A'             
     e(  9 -  9) =      3.91634  eV     1   --> A'             
     e( 10 - 10) =     10.71717  eV     1   --> A'             
     e( 11 - 11) =     12.68568  eV     1   --> A'             
     e( 12 - 12) =     13.29834  eV     1   --> A''            
     e( 13 - 13) =     14.39746  eV     1   --> A'             
     e( 14 - 14) =     15.76794  eV     1   --> A'             
     e( 15 - 15) =     16.21908  eV     1   --> A'             
     e( 16 - 16) =     16.49491  eV     1   --> A''            
     e( 17 - 17) =     16.55853  eV     1   --> A'             
     e( 18 - 18) =     16.79024  eV     1   --> A''            
     e( 19 - 19) =     17.90143  eV     1   --> A''            
     e( 20 - 20) =     18.07663  eV     1   --> A'             
     e( 21 - 21) =     19.75147  eV     1   --> A'             
     e( 22 - 22) =     22.21330  eV     1   --> A''            
     e( 23 - 23) =     22.38748  eV     1   --> A'             
     e( 24 - 24) =     27.18880  eV     1   --> A'             
     e( 25 - 25) =     28.71879  eV     1   --> A'             
     e( 26 - 26) =     31.74032  eV     1   --> A'             
     e( 27 - 27) =     33.74465  eV     1   --> A'             
     e( 28 - 28) =     34.00521  eV     1   --> A''            
     e( 29 - 29) =     36.37413  eV     1   --> A'             
     e( 30 - 30) =     37.44224  eV     1   --> A'             

 **************************************************************************

 **************************************************************************

                    xk=(   0.13333,   0.07698,   0.08539  )

     Band symmetry, C_s (m)     point group:

     e(  1 -  1) =    -48.07417  eV     1   --> A'             
     e(  2 -  2) =    -47.98067  eV     1   --> A'             
     e(  3 -  3) =    -22.12175  eV     1   --> A'             
     e(  4 -  4) =    -21.81032  eV     1   --> A'             
     e(  5 -  5) =    -21.77540  eV     1   --> A''            
     e(  6 -  6) =    -21.74802  eV     1   --> A'             
     e(  7 -  7) =    -21.68191  eV     1   --> A''            
     e(  8 -  8) =    -21.59993  eV     1   --> A'             
     e(  9 -  9) =      3.99267  eV     1   --> A'             
     e( 10 - 10) =     10.76375  eV     1   --> A'             
     e( 11 - 11) =     12.54178  eV     1   --> A'             
     e( 12 - 12) =     13.27541  eV     1   --> A''            
     e( 13 - 13) =     14.41910  eV     1   --> A'             
     e( 14 - 14) =     15.64893  eV     1   --> A'             
     e( 15 - 15) =     16.14829  eV     1   --> A'             
     e( 16 - 16) =     16.54514  eV     1   --> A''            
     e( 17 - 17) =     16.63746  eV     1   --> A'             
     e( 18 - 18) =     16.84075  eV     1   --> A''            
     e( 19 - 19) =     17.97022  eV     1   --> A''            
     e( 20 - 20) =     18.16826  eV     1   --> A'             
     e( 21 - 21) =     19.87251  eV     1   --> A'             
     e( 22 - 22) =     22.11019  eV     1   --> A''            
     e( 23 - 23) =     22.33326  eV     1   --> A'             
     e( 24 - 24) =     27.25636  eV     1   --> A'             
     e( 25 - 25) =     28.89207  eV     1   --> A'             
     e( 26 - 26) =     31.33256  eV     1   --> A'             
     e( 27 - 27) =     33.54624  eV     1   --> A'             
     e( 28 - 28) =     34.04892  eV     1   --> A''            
     e( 29 - 29) =     36.37615  eV     1   --> A'             
     e( 30 - 30) =     37.11261  eV     1   --> A'             

 **************************************************************************

 **************************************************************************

                    xk=(   0.15000,   0.08660,   0.09606  )

     Band symmetry, C_s (m)     point group:

     e(  1 -  1) =    -48.06994  eV     1   --> A'             
     e(  2 -  2) =    -47.98069  eV     1   --> A'             
     e(  3 -  3) =    -22.10952  eV     1   --> A'             
     e(  4 -  4) =    -21.82303  eV     1   --> A'             
     e(  5 -  5) =    -21.77976  eV     1   --> A''            
     e(  6 -  6) =    -21.76724  eV     1   --> A'             
     e(  7 -  7) =    -21.68449  eV     1   --> A''            
     e(  8 -  8) =    -21.60600  eV     1   --> A'             
     e(  9 -  9) =      4.07628  eV     1   --> A'             
     e( 10 - 10) =     10.81398  eV     1   --> A'             
     e( 11 - 11) =     12.39886  eV     1   --> A'             
     e( 12 - 12) =     13.25197  eV     1   --> A''            
     e( 13 - 13) =     14.42945  eV     1   --> A'             
     e( 14 - 14) =     15.53250  eV     1   --> A'             
     e( 15 - 15) =     16.08302  eV     1   --> A'             
     e( 16 - 16) =     16.60325  eV     1   --> A''            
     e( 17 - 17) =     16.72277  eV     1   --> A'             
     e( 18 - 18) =     16.89896  eV     1   --> A''            
     e( 19 - 19) =     18.03443  eV     1   --> A''            
     e( 20 - 20) =     18.25403  eV     1   --> A'             
     e( 21 - 21) =     19.99143  eV     1   --> A'             
     e( 22 - 22) =     22.00645  eV     1   --> A''            
     e( 23 - 23) =     22.28288  eV     1   --> A'             
     e( 24 - 24) =     27.32973  eV     1   --> A'             
     e( 25 - 25) =     29.07240  eV     1   --> A'             
     e( 26 - 26) =     30.91315  eV     1   --> A'             
     e( 27 - 27) =     33.36572  eV     1   --> A'             
     e( 28 - 28) =     34.07074  eV     1   --> A''            
     e( 29 - 29) =     36.26344  eV     1   --> A'             
     e( 30 - 30) =     36.84471  eV     1   --> A'             

 **************************************************************************

 **************************************************************************

                    xk=(   0.16667,   0.09623,   0.10673  )

     Band symmetry, C_s (m)     point group:

     e(  1 -  1) =    -48.06538  eV     1   --> A'             
     e(  2 -  2) =    -47.98071  eV     1   --> A'             
     e(  3 -  3) =    -22.09703  eV     1   --> A'             
     e(  4 -  4) =    -21.83628  eV     1   --> A'             
     e(  5 -  5) =    -21.78794  eV     1   --> A'             
     e(  6 -  6) =    -21.78422  eV     1   --> A''            
     e(  7 -  7) =    -21.68752  eV     1   --> A''            
     e(  8 -  8) =    -21.61222  eV     1   --> A'             
     e(  9 -  9) =      4.16614  eV     1   --> A'             
     e( 10 - 10) =     10.86604  eV     1   --> A'             
     e( 11 - 11) =     12.26016  eV     1   --> A'             
     e( 12 - 12) =     13.22876  eV     1   --> A''            
     e( 13 - 13) =     14.42819  eV     1   --> A'             
     e( 14 - 14) =     15.42116  eV     1   --> A'             
     e( 15 - 15) =     16.02584  eV     1   --> A'             
     e( 16 - 16) =     16.66898  eV     1   --> A''            
     e( 17 - 17) =     16.81227  eV     1   --> A'             
     e( 18 - 18) =     16.96433  eV     1   --> A''            
     e( 19 - 19) =     18.09066  eV     1   --> A''            
     e( 20 - 20) =     18.33172  eV     1   --> A'             
     e( 21 - 21) =     20.10430  eV     1   --> A'             
     e( 22 - 22) =     21.90617  eV     1   --> A''            
     e( 23 - 23) =     22.24049  eV     1   --> A'             
     e( 24 - 24) =     27.40791  eV     1   --> A'             
     e( 25 - 25) =     29.25036  eV     1   --> A'             
     e( 26 - 26) =     30.49205  eV     1   --> A'             
     e( 27 - 27) =     33.20293  eV     1   --> A'             
     e( 28 - 28) =     34.06056  eV     1   --> A''            
     e( 29 - 29) =     36.05211  eV     1   --> A'             
     e( 30 - 30) =     36.62747  eV     1   --> A'             

 **************************************************************************

 **************************************************************************

                    xk=(   0.18333,   0.10585,   0.11741  )

     Band symmetry, C_s (m)     point group:

     e(  1 -  1) =    -48.06053  eV     1   --> A'             
     e(  2 -  2) =    -47.98072  eV     1   --> A'             
     e(  3 -  3) =    -22.08481  eV     1   --> A'             
     e(  4 -  4) =    -21.84988  eV     1   --> A'             
     e(  5 -  5) =    -21.80949  eV     1   --> A'             
     e(  6 -  6) =    -21.78870  eV     1   --> A''            
     e(  7 -  7) =    -21.69101  eV     1   --> A''            
     e(  8 -  8) =    -21.61857  eV     1   --> A'             
     e(  9 -  9) =      4.26115  eV     1   --> A'             
     e( 10 - 10) =     10.91719  eV     1   --> A'             
     e( 11 - 11) =     12.12949  eV     1   --> A'             
     e( 12 - 12) =     13.20659  eV     1   --> A''            
     e( 13 - 13) =     14.41571  eV     1   --> A'             
     e( 14 - 14) =     15.31683  eV     1   --> A'             
     e( 15 - 15) =     15.97834  eV     1   --> A'             
     e( 16 - 16) =     16.74178  eV     1   --> A''            
     e( 17 - 17) =     16.90423  eV     1   --> A'             
     e( 18 - 18) =     17.03622  eV     1   --> A''            
     e( 19 - 19) =     18.13569  eV     1   --> A''            
     e( 20 - 20) =     18.39928  eV     1   --> A'             
     e( 21 - 21) =     20.20722  eV     1   --> A'             
     e( 22 - 22) =     21.81361  eV     1   --> A''            
     e( 23 - 23) =     22.21054  eV     1   --> A'             
     e( 24 - 24) =     27.48995  eV     1   --> A'             
     e( 25 - 25) =     29.40421  eV     1   --> A'             
     e( 26 - 26) =     30.08927  eV     1   --> A'             
     e( 27 - 27) =     33.05759  eV     1   --> A'             
     e( 28 - 28) =     34.00922  eV     1   --> A''            
     e( 29 - 29) =     35.79936  eV     1   --> A'             
     e( 30 - 30) =     36.42505  eV     1   --> A'             

 **************************************************************************

 **************************************************************************

                    xk=(   0.20000,   0.11547,   0.12808  )

     Band symmetry, C_s (m)     point group:

     e(  1 -  1) =    -48.05544  eV     1   --> A'             
     e(  2 -  2) =    -47.98074  eV     1   --> A'             
     e(  3 -  3) =    -22.07355  eV     1   --> A'             
     e(  4 -  4) =    -21.86403  eV     1   --> A'             
     e(  5 -  5) =    -21.83067  eV     1   --> A'             
     e(  6 -  6) =    -21.79310  eV     1   --> A''            
     e(  7 -  7) =    -21.69495  eV     1   --> A''            
     e(  8 -  8) =    -21.62501  eV     1   --> A'             
     e(  9 -  9) =      4.36012  eV     1   --> A'             
     e( 10 - 10) =     10.96310  eV     1   --> A'             
     e( 11 - 11) =     12.01188  eV     1   --> A'             
     e( 12 - 12) =     13.18612  eV     1   --> A''            
     e( 13 - 13) =     14.39323  eV     1   --> A'             
     e( 14 - 14) =     15.22091  eV     1   --> A'             
     e( 15 - 15) =     15.94116  eV     1   --> A'             
     e( 16 - 16) =     16.82069  eV     1   --> A''            
     e( 17 - 17) =     16.99716  eV     1   --> A'             
     e( 18 - 18) =     17.11397  eV     1   --> A''            
     e( 19 - 19) =     18.16676  eV     1   --> A''            
     e( 20 - 20) =     18.45483  eV     1   --> A'             
     e( 21 - 21) =     20.29620  eV     1   --> A'             
     e( 22 - 22) =     21.73262  eV     1   --> A''            
     e( 23 - 23) =     22.19761  eV     1   --> A'             
     e( 24 - 24) =     27.57449  eV     1   --> A'             
     e( 25 - 25) =     29.41792  eV     1   --> A'             
     e( 26 - 26) =     29.81707  eV     1   --> A'             
     e( 27 - 27) =     32.93042  eV     1   --> A'             
     e( 28 - 28) =     33.91041  eV     1   --> A''            
     e( 29 - 29) =     35.54533  eV     1   --> A'             
     e( 30 - 30) =     36.22362  eV     1   --> A'             

 **************************************************************************

 **************************************************************************

                    xk=(   0.21667,   0.12509,   0.13875  )

     Band symmetry, C_s (m)     point group:

     e(  1 -  1) =    -48.05017  eV     1   --> A'             
     e(  2 -  2) =    -47.98075  eV     1   --> A'             
     e(  3 -  3) =    -22.06413  eV     1   --> A'             
     e(  4 -  4) =    -21.88006  eV     1   --> A'             
     e(  5 -  5) =    -21.84897  eV     1   --> A'             
     e(  6 -  6) =    -21.79735  eV     1   --> A''            
     e(  7 -  7) =    -21.69933  eV     1   --> A''            
     e(  8 -  8) =    -21.63151  eV     1   --> A'             
     e(  9 -  9) =      4.46184  eV     1   --> A'             
     e( 10 - 10) =     10.99735  eV     1   --> A'             
     e( 11 - 11) =     11.91407  eV     1   --> A'             
     e( 12 - 12) =     13.16799  eV     1   --> A''            
     e( 13 - 13) =     14.36295  eV     1   --> A'             
     e( 14 - 14) =     15.13436  eV     1   --> A'             
     e( 15 - 15) =     15.91403  eV     1   --> A'             
     e( 16 - 16) =     16.90438  eV     1   --> A''            
     e( 17 - 17) =     17.08979  eV     1   --> A'             
     e( 18 - 18) =     17.19690  eV     1   --> A''            
     e( 19 - 19) =     18.18181  eV     1   --> A''            
     e( 20 - 20) =     18.49688  eV     1   --> A'             
     e( 21 - 21) =     20.36758  eV     1   --> A'             
     e( 22 - 22) =     21.66655  eV     1   --> A''            
     e( 23 - 23) =     22.20587  eV     1   --> A'             
     e( 24 - 24) =     27.65983  eV     1   --> A'             
     e( 25 - 25) =     29.11390  eV     1   --> A'             
     e( 26 - 26) =     29.84794  eV     1   --> A'             
     e( 27 - 27) =     32.82320  eV     1   --> A'             
     e( 28 - 28) =     33.76246  eV     1   --> A''            
     e( 29 - 29) =     35.30818  eV     1   --> A'             
     e( 30 - 30) =     36.02855  eV     1   --> A'             

 **************************************************************************

 **************************************************************************

                    xk=(   0.23333,   0.13472,   0.14943  )

     Band symmetry, C_s (m)     point group:

     e(  1 -  1) =    -48.04478  eV     1   --> A'             
     e(  2 -  2) =    -47.98077  eV     1   --> A'             
     e(  3 -  3) =    -22.05753  eV     1   --> A'             
     e(  4 -  4) =    -21.89983  eV     1   --> A'             
     e(  5 -  5) =    -21.86120  eV     1   --> A'             
     e(  6 -  6) =    -21.80137  eV     1   --> A''            
     e(  7 -  7) =    -21.70413  eV     1   --> A''            
     e(  8 -  8) =    -21.63804  eV     1   --> A'             
     e(  9 -  9) =      4.56504  eV     1   --> A'             
     e( 10 - 10) =     11.01171  eV     1   --> A'             
     e( 11 - 11) =     11.84424  eV     1   --> A'             
     e( 12 - 12) =     13.15274  eV     1   --> A''            
     e( 13 - 13) =     14.32779  eV     1   --> A'             
     e( 14 - 14) =     15.05784  eV     1   --> A'             
     e( 15 - 15) =     15.89589  eV     1   --> A'             
     e( 16 - 16) =     16.99102  eV     1   --> A''            
     e( 17 - 17) =     17.18104  eV     1   --> A'             
     e( 18 - 18) =     17.28430  eV     1   --> A''            
     e( 19 - 19) =     18.17995  eV     1   --> A''            
     e( 20 - 20) =     18.52440  eV     1   --> A'             
     e( 21 - 21) =     20.41871  eV     1   --> A'             
     e( 22 - 22) =     21.61794  eV     1   --> A''            
     e( 23 - 23) =     22.23818  eV     1   --> A'             
     e( 24 - 24) =     27.74364  eV     1   --> A'             
     e( 25 - 25) =     28.72587  eV     1   --> A'             
     e( 26 - 26) =     29.94352  eV     1   --> A'             
     e( 27 - 27) =     32.73718  eV     1   --> A'             
     e( 28 - 28) =     33.56872  eV     1   --> A''            
     e( 29 - 29) =     35.09750  eV     1   --> A'             
     e( 30 - 30) =     35.84896  eV     1   --> A'             

[...]
     e(  5 -  5) =    -21.76387  eV     1   --> A              
     e(  6 -  6) =    -21.70372  eV     1   --> A              
     e(  7 -  7) =    -21.67969  eV     1   --> A              
     e(  8 -  8) =    -21.58805  eV     1   --> A              
     e(  9 -  9) =      3.81081  eV     1   --> A              
     e( 10 - 10) =     10.63068  eV     1   --> A              
     e( 11 - 11) =     12.91143  eV     1   --> A              
     e( 12 - 12) =     13.39773  eV     1   --> A              
     e( 13 - 13) =     14.30618  eV     1   --> A              
     e( 14 - 14) =     15.94967  eV     1   --> A              
     e( 15 - 15) =     16.27783  eV     1   --> A              
     e( 16 - 16) =     16.39902  eV     1   --> A              
     e( 17 - 17) =     16.45907  eV     1   --> A              
     e( 18 - 18) =     16.77333  eV     1   --> A              
     e( 19 - 19) =     17.82017  eV     1   --> A              
     e( 20 - 20) =     17.89646  eV     1   --> A              
     e( 21 - 21) =     19.61970  eV     1   --> A              
     e( 22 - 22) =     22.21814  eV     1   --> A              
     e( 23 - 23) =     22.61356  eV     1   --> A              
     e( 24 - 24) =     27.00010  eV     1   --> A              
     e( 25 - 25) =     28.50624  eV     1   --> A              
     e( 26 - 26) =     32.69284  eV     1   --> A              
     e( 27 - 27) =     33.26661  eV     1   --> A              
     e( 28 - 28) =     34.87239  eV     1   --> A              
     e( 29 - 29) =     35.50102  eV     1   --> A              
     e( 30 - 30) =     37.64096  eV     1   --> A              

 **************************************************************************

 **************************************************************************

                    xk=(   0.02917,   0.08420,   0.05604  )

     Band symmetry, C_1 (1)     point group:

     e(  1 -  1) =    -48.08492  eV     1   --> A              
     e(  2 -  2) =    -47.98107  eV     1   --> A              
     e(  3 -  3) =    -22.15402  eV     1   --> A              
     e(  4 -  4) =    -21.77537  eV     1   --> A              
     e(  5 -  5) =    -21.76166  eV     1   --> A              
     e(  6 -  6) =    -21.69684  eV     1   --> A              
     e(  7 -  7) =    -21.67824  eV     1   --> A              
     e(  8 -  8) =    -21.58410  eV     1   --> A              
     e(  9 -  9) =      3.77417  eV     1   --> A              
     e( 10 - 10) =     10.61265  eV     1   --> A              
     e( 11 - 11) =     12.99557  eV     1   --> A              
     e( 12 - 12) =     13.39751  eV     1   --> A              
     e( 13 - 13) =     14.28587  eV     1   --> A              
     e( 14 - 14) =     16.02290  eV     1   --> A              
     e( 15 - 15) =     16.29163  eV     1   --> A              
     e( 16 - 16) =     16.40812  eV     1   --> A              
     e( 17 - 17) =     16.46201  eV     1   --> A              
     e( 18 - 18) =     16.73539  eV     1   --> A              
     e( 19 - 19) =     17.77270  eV     1   --> A              
     e( 20 - 20) =     17.83589  eV     1   --> A              
     e( 21 - 21) =     19.52672  eV     1   --> A              
     e( 22 - 22) =     22.30614  eV     1   --> A              
     e( 23 - 23) =     22.61838  eV     1   --> A              
     e( 24 - 24) =     26.98711  eV     1   --> A              
     e( 25 - 25) =     28.41345  eV     1   --> A              
     e( 26 - 26) =     32.84567  eV     1   --> A              
     e( 27 - 27) =     33.38799  eV     1   --> A              
     e( 28 - 28) =     34.80017  eV     1   --> A              
     e( 29 - 29) =     35.62139  eV     1   --> A              
     e( 30 - 30) =     37.79184  eV     1   --> A              

 **************************************************************************

 **************************************************************************

                    xk=(   0.02500,   0.07217,   0.04803  )

     Band symmetry, C_1 (1)     point group:

     e(  1 -  1) =    -48.08660  eV     1   --> A              
     e(  2 -  2) =    -47.98095  eV     1   --> A              
     e(  3 -  3) =    -22.15955  eV     1   --> A              
     e(  4 -  4) =    -21.77021  eV     1   --> A              
     e(  5 -  5) =    -21.75983  eV     1   --> A              
     e(  6 -  6) =    -21.69082  eV     1   --> A              
     e(  7 -  7) =    -21.67703  eV     1   --> A              
     e(  8 -  8) =    -21.58049  eV     1   --> A              
     e(  9 -  9) =      3.74189  eV     1   --> A              
     e( 10 - 10) =     10.59716  eV     1   --> A              
     e( 11 - 11) =     13.07798  eV     1   --> A              
     e( 12 - 12) =     13.39643  eV     1   --> A              
     e( 13 - 13) =     14.26192  eV     1   --> A              
     e( 14 - 14) =     16.09131  eV     1   --> A              
     e( 15 - 15) =     16.29700  eV     1   --> A              
     e( 16 - 16) =     16.39620  eV     1   --> A              
     e( 17 - 17) =     16.49169  eV     1   --> A              
     e( 18 - 18) =     16.70452  eV     1   --> A              
     e( 19 - 19) =     17.72741  eV     1   --> A              
     e( 20 - 20) =     17.77825  eV     1   --> A              
     e( 21 - 21) =     19.44442  eV     1   --> A              
     e( 22 - 22) =     22.38656  eV     1   --> A              
     e( 23 - 23) =     22.62232  eV     1   --> A              
     e( 24 - 24) =     26.97545  eV     1   --> A              
     e( 25 - 25) =     28.32929  eV     1   --> A              
     e( 26 - 26) =     32.99981  eV     1   --> A              
     e( 27 - 27) =     33.48819  eV     1   --> A              
     e( 28 - 28) =     34.72256  eV     1   --> A              
     e( 29 - 29) =     35.75253  eV     1   --> A              
     e( 30 - 30) =     37.87921  eV     1   --> A              

 **************************************************************************

 **************************************************************************

                    xk=(   0.02083,   0.06014,   0.04003  )

     Band symmetry, C_1 (1)     point group:

     e(  1 -  1) =    -48.08803  eV     1   --> A              
     e(  2 -  2) =    -47.98084  eV     1   --> A              
     e(  3 -  3) =    -22.16434  eV     1   --> A              
     e(  4 -  4) =    -21.76571  eV     1   --> A              
     e(  5 -  5) =    -21.75832  eV     1   --> A              
     e(  6 -  6) =    -21.68570  eV     1   --> A              
     e(  7 -  7) =    -21.67606  eV     1   --> A              
     e(  8 -  8) =    -21.57729  eV     1   --> A              
     e(  9 -  9) =      3.71419  eV     1   --> A              
     e( 10 - 10) =     10.58412  eV     1   --> A              
     e( 11 - 11) =     13.15692  eV     1   --> A              
     e( 12 - 12) =     13.39487  eV     1   --> A              
     e( 13 - 13) =     14.23493  eV     1   --> A              
     e( 14 - 14) =     16.15241  eV     1   --> A              
     e( 15 - 15) =     16.29591  eV     1   --> A              
     e( 16 - 16) =     16.38106  eV     1   --> A              
     e( 17 - 17) =     16.52843  eV     1   --> A              
     e( 18 - 18) =     16.68146  eV     1   --> A              
     e( 19 - 19) =     17.68569  eV     1   --> A              
     e( 20 - 20) =     17.72454  eV     1   --> A              
     e( 21 - 21) =     19.37333  eV     1   --> A              
     e( 22 - 22) =     22.45790  eV     1   --> A              
     e( 23 - 23) =     22.62551  eV     1   --> A              
     e( 24 - 24) =     26.96539  eV     1   --> A              
     e( 25 - 25) =     28.25510  eV     1   --> A              
     e( 26 - 26) =     33.15340  eV     1   --> A              
     e( 27 - 27) =     33.56663  eV     1   --> A              
     e( 28 - 28) =     34.63978  eV     1   --> A              
     e( 29 - 29) =     35.89647  eV     1   --> A              
     e( 30 - 30) =     37.90584  eV     1   --> A              

 **************************************************************************

 **************************************************************************

                    xk=(   0.01667,   0.04811,   0.03202  )

     Band symmetry, C_1 (1)     point group:

     e(  1 -  1) =    -48.08922  eV     1   --> A              
     e(  2 -  2) =    -47.98076  eV     1   --> A              
     e(  3 -  3) =    -22.16831  eV     1   --> A              
     e(  4 -  4) =    -21.76193  eV     1   --> A              
     e(  5 -  5) =    -21.75711  eV     1   --> A              
     e(  6 -  6) =    -21.68150  eV     1   --> A              
     e(  7 -  7) =    -21.67530  eV     1   --> A              
     e(  8 -  8) =    -21.57456  eV     1   --> A              
     e(  9 -  9) =      3.69125  eV     1   --> A              
     e( 10 - 10) =     10.57349  eV     1   --> A              
     e( 11 - 11) =     13.22989  eV     1   --> A              
     e( 12 - 12) =     13.39314  eV     1   --> A              
     e( 13 - 13) =     14.20621  eV     1   --> A              
     e( 14 - 14) =     16.20170  eV     1   --> A              
     e( 15 - 15) =     16.29349  eV     1   --> A              
     e( 16 - 16) =     16.36753  eV     1   --> A              
     e( 17 - 17) =     16.56508  eV     1   --> A              
     e( 18 - 18) =     16.66578  eV     1   --> A              
     e( 19 - 19) =     17.64885  eV     1   --> A              
     e( 20 - 20) =     17.67614  eV     1   --> A              
     e( 21 - 21) =     19.31406  eV     1   --> A              
     e( 22 - 22) =     22.51858  eV     1   --> A              
     e( 23 - 23) =     22.62797  eV     1   --> A              
     e( 24 - 24) =     26.95709  eV     1   --> A              
     e( 25 - 25) =     28.19219  eV     1   --> A              
     e( 26 - 26) =     33.30372  eV     1   --> A              
     e( 27 - 27) =     33.62462  eV     1   --> A              
     e( 28 - 28) =     34.55183  eV     1   --> A              
     e( 29 - 29) =     36.05190  eV     1   --> A              
     e( 30 - 30) =     37.89675  eV     1   --> A              

 **************************************************************************

 **************************************************************************

                    xk=(   0.01250,   0.03608,   0.02402  )

     Band symmetry, C_1 (1)     point group:

     e(  1 -  1) =    -48.09015  eV     1   --> A              
     e(  2 -  2) =    -47.98069  eV     1   --> A              
     e(  3 -  3) =    -22.17144  eV     1   --> A              
     e(  4 -  4) =    -21.75894  eV     1   --> A              
     e(  5 -  5) =    -21.75618  eV     1   --> A              
     e(  6 -  6) =    -21.67823  eV     1   --> A              
     e(  7 -  7) =    -21.67474  eV     1   --> A              
     e(  8 -  8) =    -21.57237  eV     1   --> A              
     e(  9 -  9) =      3.67325  eV     1   --> A              
     e( 10 - 10) =     10.56527  eV     1   --> A              
     e( 11 - 11) =     13.29374  eV     1   --> A              
     e( 12 - 12) =     13.39154  eV     1   --> A              
     e( 13 - 13) =     14.17793  eV     1   --> A              
     e( 14 - 14) =     16.22983  eV     1   --> A              
     e( 15 - 15) =     16.30025  eV     1   --> A              
     e( 16 - 16) =     16.35665  eV     1   --> A              
     e( 17 - 17) =     16.59807  eV     1   --> A              
     e( 18 - 18) =     16.65612  eV     1   --> A              
     e( 19 - 19) =     17.61822  eV     1   --> A              
     e( 20 - 20) =     17.63490  eV     1   --> A              
     e( 21 - 21) =     19.26728  eV     1   --> A              
     e( 22 - 22) =     22.56730  eV     1   --> A              
     e( 23 - 23) =     22.62982  eV     1   --> A              
     e( 24 - 24) =     26.95064  eV     1   --> A              
     e( 25 - 25) =     28.14180  eV     1   --> A              
     e( 26 - 26) =     33.44652  eV     1   --> A              
     e( 27 - 27) =     33.66491  eV     1   --> A              
     e( 28 - 28) =     34.46034  eV     1   --> A              
     e( 29 - 29) =     36.21231  eV     1   --> A              
     e( 30 - 30) =     37.87417  eV     1   --> A              

 **************************************************************************

 **************************************************************************

                    xk=(   0.00833,   0.02406,   0.01601  )

     Band symmetry, C_1 (1)     point group:

     e(  1 -  1) =    -48.09081  eV     1   --> A              
     e(  2 -  2) =    -47.98064  eV     1   --> A              
     e(  3 -  3) =    -22.17370  eV     1   --> A              
     e(  4 -  4) =    -21.75676  eV     1   --> A              
     e(  5 -  5) =    -21.75553  eV     1   --> A              
     e(  6 -  6) =    -21.67591  eV     1   --> A              
     e(  7 -  7) =    -21.67435  eV     1   --> A              
     e(  8 -  8) =    -21.57077  eV     1   --> A              
     e(  9 -  9) =      3.66030  eV     1   --> A              
     e( 10 - 10) =     10.55942  eV     1   --> A              
     e( 11 - 11) =     13.34448  eV     1   --> A              
     e( 12 - 12) =     13.39026  eV     1   --> A              
     e( 13 - 13) =     14.15327  eV     1   --> A              
     e( 14 - 14) =     16.23490  eV     1   --> A              
     e( 15 - 15) =     16.31931  eV     1   --> A              
     e( 16 - 16) =     16.34874  eV     1   --> A              
     e( 17 - 17) =     16.62445  eV     1   --> A              
     e( 18 - 18) =     16.65078  eV     1   --> A              
     e( 19 - 19) =     17.59510  eV     1   --> A              
     e( 20 - 20) =     17.60303  eV     1   --> A              
     e( 21 - 21) =     19.23345  eV     1   --> A              
     e( 22 - 22) =     22.60300  eV     1   --> A              
     e( 23 - 23) =     22.63112  eV     1   --> A              
     e( 24 - 24) =     26.94606  eV     1   --> A              
     e( 25 - 25) =     28.10499  eV     1   --> A              
     e( 26 - 26) =     33.57410  eV     1   --> A              
     e( 27 - 27) =     33.69073  eV     1   --> A              
     e( 28 - 28) =     34.37086  eV     1   --> A              
     e( 29 - 29) =     36.36349  eV     1   --> A              
     e( 30 - 30) =     37.85129  eV     1   --> A              

 **************************************************************************

 **************************************************************************

                    xk=(   0.00417,   0.01203,   0.00801  )

     Band symmetry, C_1 (1)     point group:

     e(  1 -  1) =    -48.09121  eV     1   --> A              
     e(  2 -  2) =    -47.98061  eV     1   --> A              
     e(  3 -  3) =    -22.17506  eV     1   --> A              
     e(  4 -  4) =    -21.75545  eV     1   --> A              
     e(  5 -  5) =    -21.75513  eV     1   --> A              
     e(  6 -  6) =    -21.67451  eV     1   --> A              
     e(  7 -  7) =    -21.67412  eV     1   --> A              
     e(  8 -  8) =    -21.56979  eV     1   --> A              
     e(  9 -  9) =      3.65250  eV     1   --> A              
     e( 10 - 10) =     10.55594  eV     1   --> A              
     e( 11 - 11) =     13.37759  eV     1   --> A              
     e( 12 - 12) =     13.38944  eV     1   --> A              
     e( 13 - 13) =     14.13608  eV     1   --> A              
     e( 14 - 14) =     16.23229  eV     1   --> A              
     e( 15 - 15) =     16.33613  eV     1   --> A              
     e( 16 - 16) =     16.34395  eV     1   --> A              
     e( 17 - 17) =     16.64157  eV     1   --> A              
     e( 18 - 18) =     16.64825  eV     1   --> A              
     e( 19 - 19) =     17.58066  eV     1   --> A              
     e( 20 - 20) =     17.58273  eV     1   --> A              
     e( 21 - 21) =     19.21303  eV     1   --> A              
     e( 22 - 22) =     22.62480  eV     1   --> A              
     e( 23 - 23) =     22.63188  eV     1   --> A              
     e( 24 - 24) =     26.94334  eV     1   --> A              
     e( 25 - 25) =     28.08258  eV     1   --> A              
     e( 26 - 26) =     33.67091  eV     1   --> A              
     e( 27 - 27) =     33.70494  eV     1   --> A              
     e( 28 - 28) =     34.29748  eV     1   --> A              
     e( 29 - 29) =     36.47962  eV     1   --> A              
     e( 30 - 30) =     37.83525  eV     1   --> A              

 **************************************************************************

 **************************************************************************

                    xk=(   0.00000,   0.00000,   0.00000  )

     point group D_3d (-3m) 
     there are  6 classes
     the character table:

       E     2C3   3C2'  i     2S6   3s_d 
A_1g   1.00  1.00  1.00  1.00  1.00  1.00
A_2g   1.00  1.00 -1.00  1.00  1.00 -1.00
E_g    2.00 -1.00  0.00  2.00 -1.00  0.00
A_1u   1.00  1.00  1.00 -1.00 -1.00 -1.00
A_2u   1.00  1.00 -1.00 -1.00 -1.00  1.00
E_u    2.00 -1.00  0.00 -2.00  1.00  0.00

     the symmetry operations in each class and the name of the first element:

     E        1
                                                                 
     2C3      3    4
                                                                 
     3C2'     2    5    6
                                                                 
     i        7
                                                                 
     2S6      9   10
                                                                 
     3s_d     8   11   12
                                                                 

     Band symmetry, D_3d (-3m)  point group:

     e(  1 -  1) =    -48.09134  eV     1   --> A_1g L_1       
     e(  2 -  2) =    -47.98060  eV     1   --> A_2u L_2'      
     e(  3 -  3) =    -22.17552  eV     1   --> A_1g L_1       
     e(  4 -  5) =    -21.75500  eV     2   --> E_g  L_3       
     e(  6 -  7) =    -21.67405  eV     2   --> E_u  L_3'      
     e(  8 -  8) =    -21.56946  eV     1   --> A_2u L_2'      
     e(  9 -  9) =      3.64989  eV     1   --> A_1g L_1       
     e( 10 - 10) =     10.55477  eV     1   --> A_2u L_2'      
     e( 11 - 12) =     13.38915  eV     2   --> E_u  L_3'      
     e( 13 - 13) =     14.12987  eV     1   --> A_1g L_1       
     e( 14 - 14) =     16.23076  eV     1   --> A_1g L_1       
     e( 15 - 16) =     16.34235  eV     2   --> E_g  L_3       
     e( 17 - 18) =     16.64752  eV     2   --> E_g  L_3       
     e( 19 - 20) =     17.57575  eV     2   --> E_u  L_3'      
     e( 21 - 21) =     19.20616  eV     1   --> A_2u L_2'      
     e( 22 - 23) =     22.63213  eV     2   --> E_u  L_3'      
     e( 24 - 24) =     26.94243  eV     1   --> A_1g L_1       
     e( 25 - 25) =     28.07504  eV     1   --> A_2u L_2'      
     e( 26 - 27) =     33.70945  eV     2   --> E_g  L_3       
     e( 28 - 28) =     34.26684  eV     1   --> A_2u L_2'      
     e( 29 - 29) =     36.52499  eV     1   --> A_1g L_1       
     e( 30 - 30) =     37.82955  eV     1   -->   ?

 **************************************************************************

     BANDS        :     10.64s CPU     13.65s WALL


   This run was terminated on:  16:11:54  31May2024            

=------------------------------------------------------------------------------=
   JOB DONE.
=------------------------------------------------------------------------------=
