
     Program PWSCF v.6.7MaX starts on 31May2024 at 22:45:46 

     This program is part of the open-source Quantum ESPRESSO suite
     for quantum simulation of materials; please cite
         "P. Giannozzi et al., J. Phys.:Condens. Matter 21 395502 (2009);
         "P. Giannozzi et al., J. Phys.:Condens. Matter 29 465901 (2017);
          URL http://www.quantum-espresso.org", 
     in publications or presentations arising from this work. More details at
     http://www.quantum-espresso.org/quote

     Parallel version (MPI), running on     1 processors

     MPI processes distributed on     1 nodes
     Waiting for input...
     Reading input from standard input
Warning: card &IONS ignored
Warning: card / ignored
Warning: card &CELL ignored
Warning: card CELL_DOFREE='IBRAV' ignored
Warning: card / ignored

     Current dimensions of program PWSCF are:
     Max number of different atomic species (ntypx) = 10
     Max number of k-points (npk) =  40000
     Max angular momentum in pseudopotentials (lmaxx) =  3

     Atomic positions and unit cell read from directory:
     ./outs/v2c.save/
     Atomic positions from file used, from input discarded

     file C.pbe-n-kjpaw_psl.1.0.0.UPF: wavefunction(s)  2S 2P renormalized

     Subspace diagonalization in iterative solution of the eigenvalue problem:
     a serial algorithm will be used

     Message from routine setup:
     using ibrav=0 with symmetry is DISCOURAGED, use correct ibrav instead

     G-vector sticks info
     --------------------
     sticks:   dense  smooth     PW     G-vecs:    dense   smooth      PW
     Sum         649     313    109                21181     7415    1339



     bravais-lattice index     =            0
     lattice parameter (alat)  =       5.4472  a.u.
     unit-cell volume          =     218.5677 (a.u.)^3
     number of atoms/cell      =            3
     number of atomic types    =            2
     number of electrons       =        30.00
     number of Kohn-Sham states=           30
     kinetic-energy cutoff     =      40.0000  Ry
     charge density cutoff     =     320.0000  Ry
     Exchange-correlation=  SLA  PW   PBX  PBC
                           (   1   4   3   4   0   0   0)

     celldm(1)=   5.447159  celldm(2)=   0.000000  celldm(3)=   0.000000
     celldm(4)=   0.000000  celldm(5)=   0.000000  celldm(6)=   0.000000

     crystal axes: (cart. coord. in units of alat)
               a(1) = (  -0.500000  -0.866025   0.000000 )  
               a(2) = (  -0.500000   0.866025   0.000000 )  
               a(3) = (   0.000000   0.000000  -1.561512 )  

     reciprocal axes: (cart. coord. in units 2 pi/alat)
               b(1) = ( -1.000000 -0.577350 -0.000000 )  
               b(2) = ( -1.000000  0.577350  0.000000 )  
               b(3) = ( -0.000000  0.000000 -0.640405 )  


     PseudoPot. # 1 for C  read from file:
     ./C.pbe-n-kjpaw_psl.1.0.0.UPF
     MD5 check sum: 5d2aebdfa2cae82b50a7e79e9516da0f
     Pseudo is Projector augmented-wave + core cor, Zval =  4.0
     Generated using "atomic" code by A. Dal Corso  v.5.1
     Shape of augmentation charge: PSQ
     Using radial grid of 1073 points,  4 beta functions with: 
                l(1) =   0
                l(2) =   0
                l(3) =   1
                l(4) =   1
     Q(r) pseudized with 0 coefficients 


     PseudoPot. # 2 for V  read from file:
     ./v_pbe_v1.4.uspp.F.UPF
     MD5 check sum: 22b79981416ebb76fdaf5b1b8640f6fb
     Pseudo is Ultrasoft + core correction, Zval = 13.0
     Generated by new atomic code, or converted to UPF format
     Using radial grid of  853 points,  6 beta functions with: 
                l(1) =   0
                l(2) =   0
                l(3) =   1
                l(4) =   1
                l(5) =   2
                l(6) =   2
     Q(r) pseudized with  8 coefficients,  rinner =    1.100   1.100   1.100
                                                       1.100   1.100

     atomic species   valence    mass     pseudopotential
        C              4.00    12.01070     C ( 1.00)
        V             13.00    50.94150     V ( 1.00)

     12 Sym. Ops., with inversion, found


                                    s                        frac. trans.

      isym =  1     identity                                     

 cryst.   s( 1) = (     1          0          0      )
                  (     0          1          0      )
                  (     0          0          1      )

 cart.    s( 1) = (  1.0000000  0.0000000  0.0000000 )
                  (  0.0000000  1.0000000  0.0000000 )
                  (  0.0000000  0.0000000  1.0000000 )


      isym =  2     180 deg rotation - cart. axis [1,0,0]        

 cryst.   s( 2) = (     0          1          0      )
                  (     1          0          0      )
                  (     0          0         -1      )

 cart.    s( 2) = (  1.0000000  0.0000000  0.0000000 )
                  (  0.0000000 -1.0000000  0.0000000 )
                  (  0.0000000  0.0000000 -1.0000000 )


      isym =  3     120 deg rotation - cryst. axis [0,0,1]       

 cryst.   s( 3) = (    -1         -1          0      )
                  (     1          0          0      )
                  (     0          0          1      )

 cart.    s( 3) = ( -0.5000000 -0.8660254  0.0000000 )
                  (  0.8660254 -0.5000000  0.0000000 )
                  (  0.0000000  0.0000000  1.0000000 )


      isym =  4     120 deg rotation - cryst. axis [0,0,-1]      

 cryst.   s( 4) = (     0          1          0      )
                  (    -1         -1          0      )
                  (     0          0          1      )

 cart.    s( 4) = ( -0.5000000  0.8660254  0.0000000 )
                  ( -0.8660254 -0.5000000  0.0000000 )
                  (  0.0000000  0.0000000  1.0000000 )


      isym =  5     180 deg rotation - cryst. axis [0,1,0]       

 cryst.   s( 5) = (    -1         -1          0      )
                  (     0          1          0      )
                  (     0          0         -1      )

 cart.    s( 5) = ( -0.5000000 -0.8660254  0.0000000 )
                  ( -0.8660254  0.5000000  0.0000000 )
                  (  0.0000000  0.0000000 -1.0000000 )


      isym =  6     180 deg rotation - cryst. axis [1,1,0]       

 cryst.   s( 6) = (     1          0          0      )
                  (    -1         -1          0      )
                  (     0          0         -1      )

 cart.    s( 6) = ( -0.5000000  0.8660254  0.0000000 )
                  (  0.8660254  0.5000000  0.0000000 )
                  (  0.0000000  0.0000000 -1.0000000 )


      isym =  7     inversion                                    

 cryst.   s( 7) = (    -1          0          0      )
                  (     0         -1          0      )
                  (     0          0         -1      )

 cart.    s( 7) = ( -1.0000000  0.0000000  0.0000000 )
                  (  0.0000000 -1.0000000  0.0000000 )
                  (  0.0000000  0.0000000 -1.0000000 )


      isym =  8     inv. 180 deg rotation - cart. axis [1,0,0]   

 cryst.   s( 8) = (     0         -1          0      )
                  (    -1          0          0      )
                  (     0          0          1      )

 cart.    s( 8) = ( -1.0000000  0.0000000  0.0000000 )
                  (  0.0000000  1.0000000  0.0000000 )
                  (  0.0000000  0.0000000  1.0000000 )


      isym =  9     inv. 120 deg rotation - cryst. axis [0,0,1]  

 cryst.   s( 9) = (     1          1          0      )
                  (    -1          0          0      )
                  (     0          0         -1      )

 cart.    s( 9) = (  0.5000000  0.8660254  0.0000000 )
                  ( -0.8660254  0.5000000  0.0000000 )
                  (  0.0000000  0.0000000 -1.0000000 )


      isym = 10     inv. 120 deg rotation - cryst. axis [0,0,-1] 

 cryst.   s(10) = (     0         -1          0      )
                  (     1          1          0      )
                  (     0          0         -1      )

 cart.    s(10) = (  0.5000000 -0.8660254  0.0000000 )
                  (  0.8660254  0.5000000  0.0000000 )
                  (  0.0000000  0.0000000 -1.0000000 )


      isym = 11     inv. 180 deg rotation - cryst. axis [0,1,0]  

 cryst.   s(11) = (     1          1          0      )
                  (     0         -1          0      )
                  (     0          0          1      )

 cart.    s(11) = (  0.5000000  0.8660254  0.0000000 )
                  (  0.8660254 -0.5000000  0.0000000 )
                  (  0.0000000  0.0000000  1.0000000 )


      isym = 12     inv. 180 deg rotation - cryst. axis [1,1,0]  

 cryst.   s(12) = (    -1          0          0      )
                  (     1          1          0      )
                  (     0          0          1      )

 cart.    s(12) = (  0.5000000 -0.8660254  0.0000000 )
                  ( -0.8660254 -0.5000000  0.0000000 )
                  (  0.0000000  0.0000000  1.0000000 )


   Cartesian axes

     site n.     atom                  positions (alat units)
         1           V   tau(   1) = (  -0.5000000   0.2886751  -0.3984485  )
         2           V   tau(   2) = (  -0.5000000  -0.2886751  -1.1630630  )
         3           C   tau(   3) = (   0.0000000   0.0000000   0.0000000  )

   Crystallographic axes

     site n.     atom                  positions (cryst. coord.)
         1           V   tau(   1) = (  0.3333333  0.6666667  0.2551685  )
         2           V   tau(   2) = (  0.6666667  0.3333333  0.7448315  )
         3           C   tau(   3) = ( -0.0000000  0.0000000  0.0000000  )

     number of k points=    61
                       cart. coord. in units 2pi/alat
        k(    1) = (  -0.0000000   0.0000000   0.0000000), wk =   0.0327869
        k(    2) = (  -0.0250000  -0.0144338   0.0000000), wk =   0.0327869
        k(    3) = (  -0.0500000  -0.0288675   0.0000000), wk =   0.0327869
        k(    4) = (  -0.0750000  -0.0433013   0.0000000), wk =   0.0327869
        k(    5) = (  -0.1000000  -0.0577350   0.0000000), wk =   0.0327869
        k(    6) = (  -0.1250000  -0.0721688   0.0000000), wk =   0.0327869
        k(    7) = (  -0.1500000  -0.0866025   0.0000000), wk =   0.0327869
        k(    8) = (  -0.1750000  -0.1010363   0.0000000), wk =   0.0327869
        k(    9) = (  -0.2000000  -0.1154701   0.0000000), wk =   0.0327869
        k(   10) = (  -0.2250000  -0.1299038   0.0000000), wk =   0.0327869
        k(   11) = (  -0.2500000  -0.1443376   0.0000000), wk =   0.0327869
        k(   12) = (  -0.2750000  -0.1587713   0.0000000), wk =   0.0327869
        k(   13) = (  -0.3000000  -0.1732051   0.0000000), wk =   0.0327869
        k(   14) = (  -0.3250000  -0.1876388   0.0000000), wk =   0.0327869
        k(   15) = (  -0.3500000  -0.2020726   0.0000000), wk =   0.0327869
        k(   16) = (  -0.3750000  -0.2165064   0.0000000), wk =   0.0327869
        k(   17) = (  -0.4000000  -0.2309401   0.0000000), wk =   0.0327869
        k(   18) = (  -0.4250000  -0.2453739   0.0000000), wk =   0.0327869
        k(   19) = (  -0.4500000  -0.2598076   0.0000000), wk =   0.0327869
        k(   20) = (  -0.4750000  -0.2742414   0.0000000), wk =   0.0327869
        k(   21) = (  -0.5000000  -0.2886751   0.0000000), wk =   0.0327869
        k(   22) = (  -0.4944467  -0.2982976  -0.0000000), wk =   0.0327869
        k(   23) = (  -0.4888933  -0.3079201  -0.0000000), wk =   0.0327869
        k(   24) = (  -0.4833400  -0.3175426  -0.0000000), wk =   0.0327869
        k(   25) = (  -0.4777867  -0.3271652  -0.0000000), wk =   0.0327869
        k(   26) = (  -0.4722333  -0.3367877  -0.0000000), wk =   0.0327869
        k(   27) = (  -0.4666800  -0.3464102  -0.0000000), wk =   0.0327869
        k(   28) = (  -0.4611267  -0.3560327  -0.0000000), wk =   0.0327869
        k(   29) = (  -0.4555733  -0.3656552  -0.0000000), wk =   0.0327869
        k(   30) = (  -0.4500200  -0.3752777  -0.0000000), wk =   0.0327869
        k(   31) = (  -0.4444667  -0.3849002  -0.0000000), wk =   0.0327869
        k(   32) = (  -0.4389133  -0.3945227  -0.0000000), wk =   0.0327869
        k(   33) = (  -0.4333600  -0.4041452  -0.0000000), wk =   0.0327869
        k(   34) = (  -0.4278067  -0.4137677  -0.0000000), wk =   0.0327869
        k(   35) = (  -0.4222533  -0.4233902  -0.0000000), wk =   0.0327869
        k(   36) = (  -0.4167000  -0.4330127  -0.0000000), wk =   0.0327869
        k(   37) = (  -0.4111467  -0.4426352  -0.0000000), wk =   0.0327869
        k(   38) = (  -0.4055933  -0.4522577  -0.0000000), wk =   0.0327869
        k(   39) = (  -0.4000400  -0.4618802  -0.0000000), wk =   0.0327869
        k(   40) = (  -0.3944867  -0.4715027  -0.0000000), wk =   0.0327869
        k(   41) = (  -0.3889333  -0.4811252  -0.0000000), wk =   0.0327869
        k(   42) = (  -0.3833800  -0.4907477  -0.0000000), wk =   0.0327869
        k(   43) = (  -0.3778267  -0.5003702  -0.0000000), wk =   0.0327869
        k(   44) = (  -0.3722733  -0.5099927  -0.0000000), wk =   0.0327869
        k(   45) = (  -0.3667200  -0.5196152  -0.0000000), wk =   0.0327869
        k(   46) = (  -0.3611667  -0.5292377  -0.0000000), wk =   0.0327869
        k(   47) = (  -0.3556133  -0.5388603  -0.0000000), wk =   0.0327869
        k(   48) = (  -0.3500600  -0.5484828  -0.0000000), wk =   0.0327869
        k(   49) = (  -0.3445067  -0.5581053  -0.0000000), wk =   0.0327869
        k(   50) = (  -0.3389533  -0.5677278  -0.0000000), wk =   0.0327869
        k(   51) = (  -0.3334000  -0.5773503  -0.0000000), wk =   0.0327869
        k(   52) = (  -0.3000600  -0.5196152  -0.0000000), wk =   0.0327869
        k(   53) = (  -0.2667200  -0.4618802  -0.0000000), wk =   0.0327869
        k(   54) = (  -0.2333800  -0.4041452  -0.0000000), wk =   0.0327869
        k(   55) = (  -0.2000400  -0.3464102  -0.0000000), wk =   0.0327869
        k(   56) = (  -0.1667000  -0.2886751  -0.0000000), wk =   0.0327869
        k(   57) = (  -0.1333600  -0.2309401  -0.0000000), wk =   0.0327869
        k(   58) = (  -0.1000200  -0.1732051  -0.0000000), wk =   0.0327869
        k(   59) = (  -0.0666800  -0.1154701  -0.0000000), wk =   0.0327869
        k(   60) = (  -0.0333400  -0.0577350  -0.0000000), wk =   0.0327869
        k(   61) = (  -0.0000000   0.0000000   0.0000000), wk =   0.0327869

                       cryst. coord.
        k(    1) = (   0.0000000   0.0000000   0.0000000), wk =   0.0327869
        k(    2) = (   0.0250000   0.0000000  -0.0000000), wk =   0.0327869
        k(    3) = (   0.0500000   0.0000000  -0.0000000), wk =   0.0327869
        k(    4) = (   0.0750000   0.0000000  -0.0000000), wk =   0.0327869
        k(    5) = (   0.1000000   0.0000000  -0.0000000), wk =   0.0327869
        k(    6) = (   0.1250000   0.0000000  -0.0000000), wk =   0.0327869
        k(    7) = (   0.1500000   0.0000000  -0.0000000), wk =   0.0327869
        k(    8) = (   0.1750000   0.0000000  -0.0000000), wk =   0.0327869
        k(    9) = (   0.2000000   0.0000000  -0.0000000), wk =   0.0327869
        k(   10) = (   0.2250000   0.0000000  -0.0000000), wk =   0.0327869
        k(   11) = (   0.2500000   0.0000000  -0.0000000), wk =   0.0327869
        k(   12) = (   0.2750000   0.0000000  -0.0000000), wk =   0.0327869
        k(   13) = (   0.3000000   0.0000000  -0.0000000), wk =   0.0327869
        k(   14) = (   0.3250000   0.0000000  -0.0000000), wk =   0.0327869
        k(   15) = (   0.3500000   0.0000000  -0.0000000), wk =   0.0327869
        k(   16) = (   0.3750000   0.0000000  -0.0000000), wk =   0.0327869
        k(   17) = (   0.4000000   0.0000000  -0.0000000), wk =   0.0327869
        k(   18) = (   0.4250000   0.0000000  -0.0000000), wk =   0.0327869
        k(   19) = (   0.4500000   0.0000000  -0.0000000), wk =   0.0327869
        k(   20) = (   0.4750000   0.0000000  -0.0000000), wk =   0.0327869
        k(   21) = (   0.5000000   0.0000000  -0.0000000), wk =   0.0327869
        k(   22) = (   0.5055567  -0.0111100   0.0000000), wk =   0.0327869
        k(   23) = (   0.5111133  -0.0222200   0.0000000), wk =   0.0327869
        k(   24) = (   0.5166700  -0.0333300   0.0000000), wk =   0.0327869
        k(   25) = (   0.5222267  -0.0444400   0.0000000), wk =   0.0327869
        k(   26) = (   0.5277833  -0.0555500   0.0000000), wk =   0.0327869
        k(   27) = (   0.5333400  -0.0666600   0.0000000), wk =   0.0327869
        k(   28) = (   0.5388967  -0.0777700   0.0000000), wk =   0.0327869
        k(   29) = (   0.5444533  -0.0888800   0.0000000), wk =   0.0327869
        k(   30) = (   0.5500100  -0.0999900   0.0000000), wk =   0.0327869
        k(   31) = (   0.5555667  -0.1111000   0.0000000), wk =   0.0327869
        k(   32) = (   0.5611233  -0.1222100   0.0000000), wk =   0.0327869
        k(   33) = (   0.5666800  -0.1333200   0.0000000), wk =   0.0327869
        k(   34) = (   0.5722367  -0.1444300   0.0000000), wk =   0.0327869
        k(   35) = (   0.5777933  -0.1555400   0.0000000), wk =   0.0327869
        k(   36) = (   0.5833500  -0.1666500   0.0000000), wk =   0.0327869
        k(   37) = (   0.5889067  -0.1777600   0.0000000), wk =   0.0327869
        k(   38) = (   0.5944633  -0.1888700   0.0000000), wk =   0.0327869
        k(   39) = (   0.6000200  -0.1999800   0.0000000), wk =   0.0327869
        k(   40) = (   0.6055767  -0.2110900   0.0000000), wk =   0.0327869
        k(   41) = (   0.6111333  -0.2222000   0.0000000), wk =   0.0327869
        k(   42) = (   0.6166900  -0.2333100   0.0000000), wk =   0.0327869
        k(   43) = (   0.6222467  -0.2444200   0.0000000), wk =   0.0327869
        k(   44) = (   0.6278033  -0.2555300   0.0000000), wk =   0.0327869
        k(   45) = (   0.6333600  -0.2666400   0.0000000), wk =   0.0327869
        k(   46) = (   0.6389167  -0.2777500   0.0000000), wk =   0.0327869
        k(   47) = (   0.6444733  -0.2888600   0.0000000), wk =   0.0327869
        k(   48) = (   0.6500300  -0.2999700   0.0000000), wk =   0.0327869
        k(   49) = (   0.6555867  -0.3110800   0.0000000), wk =   0.0327869
        k(   50) = (   0.6611433  -0.3221900   0.0000000), wk =   0.0327869
        k(   51) = (   0.6667000  -0.3333000   0.0000000), wk =   0.0327869
        k(   52) = (   0.6000300  -0.2999700   0.0000000), wk =   0.0327869
        k(   53) = (   0.5333600  -0.2666400   0.0000000), wk =   0.0327869
        k(   54) = (   0.4666900  -0.2333100   0.0000000), wk =   0.0327869
        k(   55) = (   0.4000200  -0.1999800   0.0000000), wk =   0.0327869
        k(   56) = (   0.3333500  -0.1666500   0.0000000), wk =   0.0327869
        k(   57) = (   0.2666800  -0.1333200   0.0000000), wk =   0.0327869
        k(   58) = (   0.2000100  -0.0999900   0.0000000), wk =   0.0327869
        k(   59) = (   0.1333400  -0.0666600   0.0000000), wk =   0.0327869
        k(   60) = (   0.0666700  -0.0333300   0.0000000), wk =   0.0327869
        k(   61) = (   0.0000000   0.0000000   0.0000000), wk =   0.0327869

     Dense  grid:    21181 G-vectors     FFT dimensions: (  32,  32,  50)

     Smooth grid:     7415 G-vectors     FFT dimensions: (  24,  24,  36)

     Dynamical RAM for                 wfc:       0.43 MB

     Dynamical RAM for     wfc (w. buffer):       0.43 MB

     Dynamical RAM for           str. fact:       0.65 MB

     Dynamical RAM for           local pot:       0.00 MB

     Dynamical RAM for          nlocal pot:       0.63 MB

     Dynamical RAM for                qrad:       2.87 MB

     Dynamical RAM for          rho,v,vnew:       2.14 MB

     Dynamical RAM for           G-vectors:       1.27 MB

     Dynamical RAM for          h,s,v(r/c):       0.16 MB

     Dynamical RAM for          <psi|beta>:       0.02 MB

     Dynamical RAM for                 psi:       0.86 MB

     Dynamical RAM for                hpsi:       0.86 MB

     Dynamical RAM for                spsi:       0.86 MB

     Dynamical RAM for      wfcinit/wfcrot:       0.88 MB

     Dynamical RAM for           addusdens:      60.76 MB

     Estimated static dynamical RAM per process >      10.90 MB

     Estimated max dynamical RAM per process >      71.67 MB

     Check: negative core charge=   -0.000009

     The potential is recalculated from file :
     ./outs/v2c.save/charge-density


     negative rho (up, down):  2.467E-03 0.000E+00
     Starting wfcs are   24 randomized atomic wfcs +    6 random wfcs
     Checking if some PAW data can be deallocated... 

     Band Structure Calculation
     Davidson diagonalization with overlap

     Computing kpt #:     1  of    61
     total cpu time spent up to now is        4.0 secs

     Computing kpt #:     2  of    61
     total cpu time spent up to now is        5.6 secs

     Computing kpt #:     3  of    61
     total cpu time spent up to now is        7.4 secs

     Computing kpt #:     4  of    61
     total cpu time spent up to now is        9.0 secs

     Computing kpt #:     5  of    61
     total cpu time spent up to now is       10.4 secs

     Computing kpt #:     6  of    61
     total cpu time spent up to now is       11.8 secs

     Computing kpt #:     7  of    61
     total cpu time spent up to now is       13.2 secs

     Computing kpt #:     8  of    61
     total cpu time spent up to now is       15.1 secs

     Computing kpt #:     9  of    61
     total cpu time spent up to now is       16.5 secs

     Computing kpt #:    10  of    61
     total cpu time spent up to now is       17.8 secs

     Computing kpt #:    11  of    61
     total cpu time spent up to now is       19.2 secs

     Computing kpt #:    12  of    61
     total cpu time spent up to now is       20.6 secs

     Computing kpt #:    13  of    61
     total cpu time spent up to now is       21.7 secs

     Computing kpt #:    14  of    61
     total cpu time spent up to now is       23.1 secs

     Computing kpt #:    15  of    61
     total cpu time spent up to now is       24.4 secs

     Computing kpt #:    16  of    61
     total cpu time spent up to now is       25.8 secs

     Computing kpt #:    17  of    61
     total cpu time spent up to now is       27.2 secs

     Computing kpt #:    18  of    61
     total cpu time spent up to now is       28.3 secs

     Computing kpt #:    19  of    61
     total cpu time spent up to now is       29.2 secs

     Computing kpt #:    20  of    61
     total cpu time spent up to now is       30.0 secs

     Computing kpt #:    21  of    61
     total cpu time spent up to now is       31.4 secs

     Computing kpt #:    22  of    61
     total cpu time spent up to now is       32.6 secs

     Computing kpt #:    23  of    61
     total cpu time spent up to now is       33.9 secs

     Computing kpt #:    24  of    61
     total cpu time spent up to now is       35.1 secs

     Computing kpt #:    25  of    61
     total cpu time spent up to now is       36.5 secs

     Computing kpt #:    26  of    61
     total cpu time spent up to now is       37.9 secs

     Computing kpt #:    27  of    61
     total cpu time spent up to now is       39.2 secs

     Computing kpt #:    28  of    61
     total cpu time spent up to now is       40.8 secs

     Computing kpt #:    29  of    61
     total cpu time spent up to now is       42.3 secs

     Computing kpt #:    30  of    61
     total cpu time spent up to now is       43.6 secs

     Computing kpt #:    31  of    61
     total cpu time spent up to now is       44.7 secs

     Computing kpt #:    32  of    61
     total cpu time spent up to now is       45.9 secs

     Computing kpt #:    33  of    61
     total cpu time spent up to now is       47.1 secs

     Computing kpt #:    34  of    61
     total cpu time spent up to now is       48.2 secs

     Computing kpt #:    35  of    61
     total cpu time spent up to now is       49.4 secs

     Computing kpt #:    36  of    61
     total cpu time spent up to now is       50.6 secs

     Computing kpt #:    37  of    61
     total cpu time spent up to now is       51.8 secs

     Computing kpt #:    38  of    61
     total cpu time spent up to now is       52.9 secs

     Computing kpt #:    39  of    61
     total cpu time spent up to now is       54.1 secs

     Computing kpt #:    40  of    61
     total cpu time spent up to now is       55.3 secs

     Computing kpt #:    41  of    61
     total cpu time spent up to now is       56.4 secs

     Computing kpt #:    42  of    61
     total cpu time spent up to now is       57.6 secs

     Computing kpt #:    43  of    61
     total cpu time spent up to now is       59.0 secs

     Computing kpt #:    44  of    61
     total cpu time spent up to now is       60.3 secs

     Computing kpt #:    45  of    61
     total cpu time spent up to now is       61.4 secs

     Computing kpt #:    46  of    61
     total cpu time spent up to now is       62.6 secs

     Computing kpt #:    47  of    61
     total cpu time spent up to now is       63.6 secs

     Computing kpt #:    48  of    61
     total cpu time spent up to now is       64.7 secs

     Computing kpt #:    49  of    61
     total cpu time spent up to now is       65.8 secs

     Computing kpt #:    50  of    61
     total cpu time spent up to now is       67.4 secs

     Computing kpt #:    51  of    61
     total cpu time spent up to now is       69.0 secs

     Computing kpt #:    52  of    61
     total cpu time spent up to now is       70.7 secs

     Computing kpt #:    53  of    61
     total cpu time spent up to now is       72.4 secs

     Computing kpt #:    54  of    61
     total cpu time spent up to now is       74.1 secs

     Computing kpt #:    55  of    61
     total cpu time spent up to now is       76.0 secs

     Computing kpt #:    56  of    61
     total cpu time spent up to now is       78.1 secs

     Computing kpt #:    57  of    61
     total cpu time spent up to now is       80.1 secs

     Computing kpt #:    58  of    61
     total cpu time spent up to now is       82.1 secs

     Computing kpt #:    59  of    61
     total cpu time spent up to now is       84.1 secs

     Computing kpt #:    60  of    61
     total cpu time spent up to now is       86.3 secs

     Computing kpt #:    61  of    61
     total cpu time spent up to now is       88.2 secs

     ethr =  2.00E-12,  avg # of iterations = 24.3

     total cpu time spent up to now is       88.2 secs

     End of band structure calculation

          k =-0.0000 0.0000 0.0000 (   953 PWs)   bands (ev):

   -48.0913 -47.9806 -22.1755 -21.7550 -21.7550 -21.6740 -21.6740 -21.5695
     3.6499  10.5548  13.3892  13.3892  14.1299  16.2308  16.3424  16.3424
    16.6475  16.6475  17.5757  17.5757  19.2062  22.6321  22.6321  26.9424
    28.0750  33.7095  33.7095  34.2668  36.5250  37.8296

          k =-0.0250-0.0144 0.0000 (   953 PWs)   bands (ev):

   -48.0909 -47.9804 -22.1743 -21.7574 -21.7559 -21.6763 -21.6742 -21.5699
     3.6607  10.5685  13.3363  13.3901  14.1553  16.2442  16.3126  16.3514
    16.6307  16.6355  17.5949  17.6030  19.2293  22.6121  22.6266  26.9827
    28.0823  33.5305  33.6952  34.4166  36.3046  37.8455

          k =-0.0500-0.0289 0.0000 (   953 PWs)   bands (ev):

   -48.0895 -47.9799 -22.1708 -21.7644 -21.7585 -21.6831 -21.6748 -21.5713
     3.6930  10.6092  13.1994  13.3924  14.2117  16.2274  16.2804  16.3770
    16.5872  16.6058  17.6477  17.6805  19.2950  22.5539  22.6097  27.1011
    28.1038  33.1870  33.6543  34.6396  35.9257  37.8915

          k =-0.0750-0.0433 0.0000 (   949 PWs)   bands (ev):

   -48.0872 -47.9791 -22.1649 -21.7759 -21.7627 -21.6942 -21.6757 -21.5735
     3.7462  10.6760  13.0128  13.3949  14.2690  16.0976  16.3212  16.4122
    16.5406  16.5765  17.7239  17.7992  19.3945  22.4628  22.5808  27.2903
    28.1386  32.7779  33.5918  34.7090  35.7013  37.9619

          k =-0.1000-0.0577 0.0000 (   945 PWs)   bands (ev):

   -48.0840 -47.9780 -22.1569 -21.7916 -21.7683 -21.7092 -21.6770 -21.5768
     3.8194  10.7674  12.7990  13.3958  14.3114  15.9362  16.3162  16.4346
    16.5445  16.5815  17.8132  17.9508  19.5174  22.3460  22.5388  27.5402
    28.1847  32.3124  33.5142  34.5269  35.7423  38.0457

          k =-0.1250-0.0722 0.0000 (   933 PWs)   bands (ev):

   -48.0800 -47.9767 -22.1467 -21.8111 -21.7752 -21.7279 -21.6789 -21.5810
     3.9111  10.8810  12.5709  13.3928  14.3338  15.7560  16.2495  16.4314
    16.6166  16.6428  17.9077  18.1276  19.6544  22.2108  22.4827  27.8386
    28.2396  31.7954  33.4289  34.2560  35.8417  37.7251

          k =-0.1500-0.0866 0.0000 (   935 PWs)   bands (ev):

   -48.0753 -47.9752 -22.1345 -21.8340 -21.7831 -21.7495 -21.6811 -21.5862
     4.0196  11.0137  12.3364  13.3836  14.3357  15.5678  16.1614  16.4299
    16.7182  16.7394  18.0019  18.3212  19.7998  22.0640  22.4107  28.1656
    28.3054  31.2420  33.3423  34.0005  35.8295  37.3548

          k =-0.1750-0.1010 0.0000 (   933 PWs)   bands (ev):

   -48.0700 -47.9736 -22.1205 -21.8596 -21.7918 -21.7736 -21.6839 -21.5924
     4.1428  11.1616  12.1014  13.3665  14.3182  15.3814  16.0714  16.4480
    16.8328  16.8571  18.0925  18.5210  19.9517  21.9125  22.3218  28.3287
    28.5523  30.6742  33.2597  33.7780  35.6816  36.8539

          k =-0.2000-0.1155 0.0000 (   935 PWs)   bands (ev):

   -48.0641 -47.9719 -22.1049 -21.8873 -21.8010 -21.7994 -21.6870 -21.5997
     4.2783  11.3189  11.8708  13.3405  14.2821  15.2057  15.9880  16.4927
    16.9556  16.9901  18.1771  18.7136  20.1115  21.7621  22.2149  28.3585
    28.9189  30.1207  33.1849  33.5834  35.4563  36.2442

          k =-0.2250-0.1299 0.0000 (   939 PWs)   bands (ev):

   -48.0578 -47.9703 -22.0878 -21.9164 -21.8264 -21.8105 -21.6905 -21.6079
     4.4234  11.4716  11.6566  13.3058  14.2276  15.0493  15.9167  16.5662
    17.0856  17.1348  18.2545  18.8848  20.2812  21.6210  22.0896  28.3256
    29.2753  29.6320  33.1202  33.4076  35.1804  35.6485

          k =-0.2500-0.1443 0.0000 (   941 PWs)   bands (ev):

   -48.0513 -47.9687 -22.0698 -21.9462 -21.8538 -21.8201 -21.6941 -21.6172
     4.5749  11.4093  11.6660  13.2636  14.1547  14.9196  15.8619  16.6683
    17.2228  17.2879  18.3240  19.0222  20.4549  21.5035  21.9461  28.1670
    29.2207  29.6573  33.0665  33.2386  34.7627  35.2531

          k =-0.2750-0.1588 0.0000 (   940 PWs)   bands (ev):

   -48.0445 -47.9673 -22.0511 -21.9757 -21.8810 -21.8295 -21.6980 -21.6274
     4.7295  11.2106  11.8159  13.2157  14.0654  14.8210  15.8269  16.7970
    17.3676  17.4457  18.3855  19.1198  20.6020  21.4434  21.7851  27.8403
    29.0147  29.9606  33.0238  33.0510  34.2695  35.0659

          k =-0.3000-0.1732 0.0000 (   938 PWs)   bands (ev):

   -48.0377 -47.9662 -22.0337 -22.0025 -21.9073 -21.8386 -21.7018 -21.6384
     4.8836  11.0201  11.9579  13.1646  13.9646  14.7531  15.8137  16.9488
    17.5204  17.6046  18.4392  19.1792  20.6582  21.5019  21.6084  27.4111
    28.8993  30.2133  32.7966  32.9913  33.8961  34.9722

          k =-0.3250-0.1876 0.0000 (   940 PWs)   bands (ev):

   -48.0310 -47.9653 -22.0381 -22.0059 -21.9321 -21.8472 -21.7055 -21.6502
     5.0332  10.8444  12.0822  13.1130  13.8597  14.7117  15.8227  17.1193
    17.6818  17.7602  18.4857  19.2074  20.5979  21.4185  21.6966  26.9548
    28.8025  30.3944  32.4588  32.9677  33.7084  34.9449

          k =-0.3500-0.2021 0.0000 (   940 PWs)   bands (ev):

   -48.0246 -47.9647 -22.0614 -21.9882 -21.9548 -21.8550 -21.7090 -21.6624
     5.1745  10.6860  12.1850  13.0631  13.7579  14.6910  15.8519  17.3027
    17.8525  17.9084  18.5257  19.2134  20.4644  21.2194  21.9754  26.5050
    28.6919  30.4919  32.1094  32.9517  33.6535  34.9764

          k =-0.3750-0.2165 0.0000 (   928 PWs)   bands (ev):

   -48.0186 -47.9644 -22.0838 -21.9752 -21.9693 -21.8619 -21.7122 -21.6748
     5.3033  10.5471  12.2654  13.0174  13.6650  14.6850  15.8965  17.4920
    18.0331  18.0443  18.5603  19.2062  20.2920  21.0166  22.2963  26.0733
    28.5607  30.4999  31.8271  32.9418  33.6601  34.7854

          k =-0.4000-0.2309 0.0000 (   928 PWs)   bands (ev):

   -48.0133 -47.9645 -22.1030 -21.9922 -21.9518 -21.8677 -21.7149 -21.6868
     5.4156  10.4297  12.3246  12.9775  13.5851  14.6882  15.9494  17.6782
    18.1633  18.2240  18.5908  19.1929  20.0956  20.8171  22.6391  25.6624
    28.4156  30.4287  31.6460  32.9366  33.6858  34.4933

          k =-0.4250-0.2454 0.0000 (   926 PWs)   bands (ev):

   -48.0087 -47.9648 -22.1186 -22.0059 -21.9361 -21.8724 -21.7172 -21.6979
     5.5077  10.3359  12.3654  12.9450  13.5208  14.6958  16.0023  17.8493
    18.2606  18.4245  18.6188  19.1793  19.8833  20.6320  22.9928  25.2708
    28.2724  30.3162  31.5519  32.9347  33.7116  34.2586

          k =-0.4500-0.2598 0.0000 (   914 PWs)   bands (ev):

   -48.0051 -47.9652 -22.1300 -22.0159 -21.9235 -21.8758 -21.7188 -21.7071
     5.5762  10.2674  12.3914  12.9210  13.4739  14.7042  16.0468  17.9902
    18.3317  18.6301  18.6451  19.1701  19.6635  20.4763  23.3489  24.8964
    28.1506  30.2081  31.5100  32.9351  33.7306  34.0863

          k =-0.4750-0.2742 0.0000 (   912 PWs)   bands (ev):

   -48.0029 -47.9655 -22.1370 -22.0221 -21.9153 -21.8779 -21.7198 -21.7132
     5.6185  10.2256  12.4055  12.9063  13.4454  14.7103  16.0763  18.0840
    18.3739  18.6666  18.8229  19.1723  19.4523  20.3694  23.6920  24.5462
    28.0688  30.1341  31.4935  32.9361  33.7418  33.9808

          k =-0.5000-0.2887 0.0000 (   916 PWs)   bands (ev):

   -48.0021 -47.9657 -22.1393 -22.0241 -21.9124 -21.8786 -21.7201 -21.7154
     5.6327  10.2116  12.4100  12.9012  13.4358  14.7126  16.0866  18.1170
    18.3877  18.6755  18.9232  19.1935  19.3251  20.3308  23.9081  24.3284
    28.0400  30.1082  31.4892  32.9366  33.7454  33.9453

          k =-0.4944-0.2983-0.0000 (   912 PWs)   bands (ev):

   -48.0021 -47.9657 -22.1392 -22.0240 -21.9123 -21.8788 -21.7205 -21.7155
     5.6332  10.2133  12.4109  12.8965  13.4401  14.7121  16.0833  18.1173
    18.3724  18.6743  18.9443  19.1934  19.3249  20.3278  23.9111  24.3295
    28.0406  30.1116  31.4785  32.8562  33.8292  33.9511

          k =-0.4889-0.3079-0.0000 (   912 PWs)   bands (ev):

   -48.0019 -47.9657 -22.1389 -22.0236 -21.9119 -21.8795 -21.7214 -21.7158
     5.6345  10.2183  12.4135  12.8826  13.4525  14.7107  16.0735  18.1183
    18.3328  18.6708  19.0015  19.1930  19.3241  20.3187  23.9202  24.3327
    28.0423  30.1214  31.4466  32.6728  33.9680  34.0228

          k =-0.4833-0.3175-0.0000 (   914 PWs)   bands (ev):

   -48.0018 -47.9657 -22.1383 -22.0229 -21.9112 -21.8806 -21.7229 -21.7163
     5.6366  10.2267  12.4179  12.8605  13.4720  14.7083  16.0572  18.1198
    18.2804  18.6649  19.0829  19.1923  19.3230  20.3037  23.9352  24.3382
    28.0449  30.1375  31.3950  32.4516  33.9949  34.2614

          k =-0.4778-0.3272-0.0000 (   914 PWs)   bands (ev):

   -48.0015 -47.9658 -22.1374 -22.0220 -21.9102 -21.8822 -21.7251 -21.7170
     5.6396  10.2384  12.4240  12.8315  13.4973  14.7051  16.0345  18.1219
    18.2238  18.6569  19.1784  19.1913  19.3226  20.2832  23.9559  24.3458
    28.0482  30.1593  31.3256  32.2187  34.0302  34.5193

          k =-0.4722-0.3368-0.0000 (   916 PWs)   bands (ev):

   -48.0012 -47.9658 -22.1364 -22.0209 -21.9090 -21.8842 -21.7279 -21.7179
     5.6434  10.2533  12.4318  12.7969  13.5273  14.7011  16.0057  18.1246
    18.1681  18.6467  19.1899  19.2720  19.3338  20.2574  23.9822  24.3556
    28.0518  30.1856  31.2408  31.9845  34.0717  34.7874

          k =-0.4667-0.3464-0.0000 (   920 PWs)   bands (ev):

   -48.0008 -47.9659 -22.1351 -22.0195 -21.9075 -21.8865 -21.7312 -21.7190
     5.6480  10.2714  12.4412  12.7576  13.5608  14.6963  15.9712  18.1159
    18.1277  18.6347  19.1882  19.2995  19.4171  20.2268  24.0138  24.3676
    28.0553  30.2147  31.1429  31.7552  34.1176  35.0614

          k =-0.4611-0.3560-0.0000 (   924 PWs)   bands (ev):

   -48.0003 -47.9660 -22.1336 -22.0178 -21.9058 -21.8893 -21.7351 -21.7203
     5.6533  10.2927  12.4522  12.7144  13.5970  14.6911  15.9313  18.0689
    18.1312  18.6210  19.1861  19.2974  19.5342  20.1920  24.0504  24.3818
    28.0580  30.2425  31.0345  31.5366  34.1662  35.3390

          k =-0.4556-0.3657-0.0000 (   924 PWs)   bands (ev):

   -47.9997 -47.9661 -22.1319 -22.0159 -21.9038 -21.8924 -21.7395 -21.7218
     5.6593  10.3169  12.4647  12.6681  13.6353  14.6854  15.8865  18.0277
    18.1352  18.6058  19.1835  19.2912  19.6580  20.1537  24.0915  24.3983
    28.0595  30.2622  30.9177  31.3372  34.2159  35.3966

          k =-0.4500-0.3753-0.0000 (   924 PWs)   bands (ev):

   -47.9991 -47.9662 -22.1300 -22.0138 -21.9015 -21.8959 -21.7445 -21.7236
     5.6660  10.3441  12.4787  12.6189  13.6751  14.6794  15.8374  17.9926
    18.1394  18.5892  19.1804  19.2828  19.7854  20.1125  24.1371  24.4170
    28.0589  30.2605  30.7945  31.1712  34.2655  35.3576

          k =-0.4445-0.3849-0.0000 (   924 PWs)   bands (ev):

   -47.9984 -47.9664 -22.1279 -22.0114 -21.8997 -21.8990 -21.7499 -21.7255
     5.6734  10.3740  12.4941  12.5673  13.7161  14.6734  15.7846  17.9636
    18.1438  18.5716  19.1766  19.2726  19.9150  20.0690  24.1865  24.4380
    28.0555  30.2183  30.6666  31.0585  34.3142  35.3121

          k =-0.4389-0.3945-0.0000 (   928 PWs)   bands (ev):

   -47.9977 -47.9665 -22.1256 -22.0088 -21.9037 -21.8963 -21.7558 -21.7276
     5.6812  10.4066  12.5107  12.5134  13.7577  14.6675  15.7288  17.9407
    18.1484  18.5531  19.1720  19.2607  20.0239  20.0460  24.2397  24.4613
    28.0484  30.1225  30.5356  31.0130  34.3611  35.2597

          k =-0.4334-0.4041-0.0000 (   932 PWs)   bands (ev):

   -47.9969 -47.9667 -22.1232 -22.0061 -21.9080 -21.8933 -21.7621 -21.7299
     5.6896  10.4417  12.4576  12.5284  13.7996  14.6620  15.6708  17.9236
    18.1530  18.5338  19.1665  19.2471  19.9782  20.1773  24.2961  24.4871
    28.0363  29.9811  30.4028  31.0276  34.4059  35.2006

          k =-0.4278-0.4138-0.0000 (   938 PWs)   bands (ev):

   -47.9961 -47.9670 -22.1206 -22.0031 -21.9124 -21.8901 -21.7688 -21.7325
     5.6983  10.4792  12.4001  12.5470  13.8415  14.6570  15.6112  17.9118
    18.1576  18.5140  19.1599  19.2318  19.9325  20.3083  24.3556  24.5154
    28.0178  29.8139  30.2695  31.0838  34.4482  35.1343

          k =-0.4223-0.4234-0.0000 (   940 PWs)   bands (ev):

   -47.9952 -47.9672 -22.1180 -21.9999 -21.9170 -21.8866 -21.7759 -21.7352
     5.7075  10.5190  12.3410  12.5665  13.8829  14.6530  15.5507  17.9052
    18.1622  18.4939  19.1519  19.2149  19.8875  20.4383  24.4177  24.5463
    27.9909  29.6374  30.1369  31.1666  34.4878  35.0612

          k =-0.4167-0.4330-0.0000 (   934 PWs)   bands (ev):

   -47.9942 -47.9675 -22.1152 -21.9966 -21.9217 -21.8829 -21.7832 -21.7382
     5.7169  10.5609  12.2806  12.5867  13.9234  14.6502  15.4901  17.9032
    18.1666  18.4736  19.1425  19.1963  19.8443  20.5665  24.4823  24.5802
    27.9531  29.4624  30.0060  31.2673  34.5249  34.9814

          k =-0.4111-0.4426-0.0000 (   934 PWs)   bands (ev):

   -47.9932 -47.9678 -22.1123 -21.9931 -21.9264 -21.8791 -21.7908 -21.7413
     5.7264  10.6047  12.2190  12.6072  13.9625  14.6489  15.4300  17.9056
    18.1708  18.4533  19.1313  19.1763  19.8033  20.6920  24.5491  24.6171
    27.9013  29.2966  29.8777  31.3810  34.5590  34.8953

          k =-0.4056-0.4523-0.0000 (   934 PWs)   bands (ev):

   -47.9922 -47.9682 -22.1095 -21.9895 -21.9311 -21.8750 -21.7986 -21.7447
     5.7361  10.6503  12.1563  12.6279  13.9999  14.6495  15.3709  17.9119
    18.1748  18.4331  19.1182  19.1549  19.7652  20.8139  24.6178  24.6573
    27.8321  29.1460  29.7527  31.5045  34.5904  34.8032

          k =-0.4000-0.4619-0.0000 (   938 PWs)   bands (ev):

   -47.9912 -47.9686 -22.1066 -21.9858 -21.9357 -21.8707 -21.8065 -21.7482
     5.7458  10.6976  12.0928  12.6485  14.0349  14.6522  15.3133  17.9218
    18.1786  18.4131  19.1032  19.1322  19.7307  20.9315  24.6882  24.7012
    27.7425  29.0152  29.6319  31.6358  34.6190  34.7056

          k =-0.3945-0.4715-0.0000 (   938 PWs)   bands (ev):

   -47.9901 -47.9690 -22.1038 -21.9820 -21.9401 -21.8662 -21.8145 -21.7520
     5.7553  10.7462  12.0287  12.6687  14.0671  14.6573  15.2579  17.9350
    18.1821  18.3935  19.0862  19.1086  19.7001  21.0438  24.7491  24.7602
    27.6307  28.9071  29.5159  31.7734  34.6022  34.6459

          k =-0.3889-0.4811-0.0000 (   938 PWs)   bands (ev):

   -47.9889 -47.9695 -22.1010 -21.9782 -21.9443 -21.8615 -21.8225 -21.7560
     5.7647  10.7962  11.9641  12.6883  14.0961  14.6651  15.2049  17.9511
    18.1853  18.3743  19.0675  19.0843  19.6736  21.1499  24.8014  24.8335
    27.4975  28.8219  29.4055  31.9155  34.4956  34.6690

          k =-0.3834-0.4907-0.0000 (   938 PWs)   bands (ev):

   -47.9878 -47.9700 -22.0984 -21.9744 -21.9482 -21.8567 -21.8305 -21.7601
     5.7737  10.8474  11.8993  12.7070  14.1216  14.6757  15.1548  17.9699
    18.1882  18.3557  19.0473  19.0595  19.6513  21.2488  24.8585  24.9079
    27.3455  28.7575  29.3013  32.0611  34.3850  34.6900

          k =-0.3778-0.5004-0.0000 (   938 PWs)   bands (ev):

   -47.9867 -47.9706 -22.0960 -21.9707 -21.9516 -21.8518 -21.8381 -21.7645
     5.7823  10.8996  11.8344  12.7245  14.1435  14.6889  15.1077  17.9910
    18.1907  18.3377  19.0263  19.0347  19.6329  21.3396  24.9210  24.9834
    27.1784  28.7109  29.2037  32.2088  34.2712  34.7085

          k =-0.3723-0.5100-0.0000 (   936 PWs)   bands (ev):

   -47.9855 -47.9712 -22.0938 -21.9671 -21.9547 -21.8478 -21.8444 -21.7691
     5.7904  10.9527  11.7698  12.7405  14.1617  14.7046  15.0640  18.0141
    18.1929  18.3204  19.0050  19.0103  19.6181  21.4214  24.9892  25.0597
    27.0001  28.6788  29.1133  32.3576  34.1549  34.7247

          k =-0.3667-0.5196-0.0000 (   936 PWs)   bands (ev):

   -47.9843 -47.9719 -22.0918 -21.9638 -21.9571 -21.8531 -21.8409 -21.7739
     5.7979  11.0065  11.7055  12.7548  14.1765  14.7224  15.0238  18.0387
    18.1944  18.3038  18.9841  18.9868  19.6066  21.4934  25.0635  25.1367
    26.8139  28.6585  29.0304  32.5062  34.0368  34.7386

          k =-0.3612-0.5292-0.0000 (   936 PWs)   bands (ev):

   -47.9831 -47.9727 -22.0902 -21.9609 -21.9590 -21.8595 -21.8355 -21.7789
     5.8045  11.0610  11.6418  12.7671  14.1880  14.7420  14.9870  18.0644
    18.1953  18.2881  18.9644  18.9649  19.5979  21.5549  25.1443  25.2144
    26.6222  28.6479  28.9554  32.6532  33.9175  34.7501

          k =-0.3556-0.5389-0.0000 (   936 PWs)   bands (ev):

   -47.9820 -47.9735 -22.0889 -21.9602 -21.9585 -21.8652 -21.8300 -21.7840
     5.8102  11.1161  11.5789  12.7773  14.1966  14.7627  14.9536  18.0907
    18.1951  18.2732  18.9452  18.9466  19.5915  21.6055  25.2319  25.2927
    26.4271  28.6457  28.8887  32.7975  33.7975  34.7595

          k =-0.3501-0.5485-0.0000 (   942 PWs)   bands (ev):

   -47.9808 -47.9744 -22.0879 -21.9607 -21.9569 -21.8698 -21.8243 -21.7894
     5.8149  11.1716  11.5170  12.7853  14.2028  14.7842  14.9234  18.1168
    18.1936  18.2594  18.9285  18.9314  19.5870  21.6447  25.3262  25.3714
    26.2300  28.6508  28.8303  32.9377  33.6773  34.7666

          k =-0.3445-0.5581-0.0000 (   942 PWs)   bands (ev):

   -47.9796 -47.9753 -22.0873 -21.9604 -21.9561 -21.8733 -21.8185 -21.7950
     5.8184  11.2274  11.4564  12.7909  14.2068  14.8060  14.8962  18.1416
    18.1904  18.2471  18.9159  18.9195  19.5841  21.6725  25.4274  25.4504
    26.0321  28.6629  28.7805  33.0726  33.5578  34.7716

          k =-0.3390-0.5677-0.0000 (   938 PWs)   bands (ev):

   -47.9785 -47.9763 -22.0870 -21.9595 -21.9565 -21.8755 -21.8126 -21.8007
     5.8207  11.2835  11.3974  12.7943  14.2090  14.8278  14.8717  18.1631
    18.1852  18.2373  18.9083  18.9113  19.5825  21.6889  25.5291  25.5353
    25.8347  28.6815  28.7393  33.2011  33.4393  34.7746

          k =-0.3334-0.5774-0.0000 (   936 PWs)   bands (ev):

   -47.9774 -47.9774 -22.0868 -21.9579 -21.9579 -21.8762 -21.8067 -21.8066
     5.8214  11.3396  11.3403  12.7954  14.2097  14.8492  14.8495  18.1775
    18.1776  18.2330  18.9070  18.9071  19.5820  21.6943  25.5961  25.6490
    25.6504  28.7065  28.7068  33.3213  33.3227  34.7755

          k =-0.3001-0.5196-0.0000 (   942 PWs)   bands (ev):

   -47.9853 -47.9713 -22.0872 -21.9796 -21.9369 -21.8585 -21.8458 -21.7695
     5.7883  11.0453  11.6775  12.7636  14.1925  14.7357  14.9706  18.0728
    18.1214  18.2734  18.9459  19.0773  19.6050  21.5323  24.4763  26.1068
    26.4342  28.6854  28.9936  32.6789  33.8218  34.7462

          k =-0.2667-0.4619-0.0000 (   940 PWs)   bands (ev):

   -47.9960 -47.9669 -22.0787 -21.9984 -21.9051 -21.8903 -21.8261 -21.7318
     5.6724  10.8672  11.9995  12.6999  14.1585  14.6018  15.0976  17.8864
    17.9774  18.2635  18.9265  19.5337  19.7325  21.1838  23.4048  26.6567
    27.2625  28.9327  29.5078  32.2066  33.8950  34.6909

          k =-0.2334-0.4041-0.0000 (   935 PWs)   bands (ev):

   -48.0092 -47.9646 -22.0530 -21.9998 -21.9381 -21.8702 -21.7919 -21.6956
     5.4613  10.8392  12.2386  12.6657  14.1348  14.4642  15.2571  17.6593
    17.7107  18.2532  18.6937  19.9584  20.1496  20.8425  22.4622  27.3269
    27.9329  29.3954  30.1331  32.0056  33.7301  34.7013

          k =-0.2000-0.3464-0.0000 (   939 PWs)   bands (ev):

   -48.0243 -47.9646 -22.0123 -21.9837 -21.9813 -21.8361 -21.7596 -21.6625
     5.1658  10.9718  12.1987  12.7962  14.1454  14.4375  15.4511  17.3270
    17.4161  18.2385  18.3022  20.0864  20.5433  20.8631  21.7479  28.1682
    28.3308  29.9369  30.4852  32.1776  33.8288  34.9256

          k =-0.1667-0.2887-0.0000 (   929 PWs)   bands (ev):

   -48.0404 -47.9666 -22.0391 -21.9456 -21.9453 -21.8048 -21.7314 -21.6337
     4.8180  11.2527  11.9158  13.0123  14.1969  14.6084  15.6667  16.9119
    17.1707  17.8366  18.2010  19.8407  20.3645  21.4642  21.4898  28.4880
    29.1865  30.1678  30.4160  32.7327  34.6597  35.4933

          k =-0.1334-0.2309-0.0000 (   937 PWs)   bands (ev):

   -48.0562 -47.9699 -22.0833 -21.8978 -21.8793 -21.7766 -21.7084 -21.6101
     4.4601  11.5359  11.6546  13.2030  14.2718  14.9497  15.8899  16.5802
    16.9315  17.3721  18.1262  19.2646  20.1592  21.6428  21.9560  28.4728
    29.3935  30.3708  30.8989  33.5422  35.9756  36.3638

          k =-0.1000-0.1732-0.0000 (   945 PWs)   bands (ev):

   -48.0704 -47.9737 -22.1215 -21.8465 -21.8180 -21.7488 -21.6912 -21.5919
     4.1338  11.1535  12.1411  13.3317  14.3321  15.3824  16.1093  16.4182
    16.7037  16.9675  18.0057  18.6362  19.8996  21.9440  22.2959  28.3578
    28.5188  31.5065  31.6374  34.4104  35.9948  37.2110

          k =-0.0667-0.1155-0.0000 (   945 PWs)   bands (ev):

   -48.0816 -47.9772 -22.1508 -21.8002 -21.7777 -21.7160 -21.6803 -21.5793
     3.8740  10.8355  12.6644  13.3865  14.3292  15.8273  16.2974  16.4411
    16.5016  16.6692  17.8420  18.0935  19.5960  22.2689  22.4993  27.7216
    28.2183  32.2612  32.8554  34.9355  35.5302  37.6762

          k =-0.0333-0.0577-0.0000 (   947 PWs)   bands (ev):

   -48.0888 -47.9797 -22.1692 -21.7672 -21.7599 -21.6859 -21.6752 -21.5719
     3.7073  10.6271  13.1461  13.3927  14.2305  16.1918  16.2947  16.3866
    16.5690  16.5977  17.6659  17.7168  19.3226  22.5294  22.6017  27.1525
    28.1133  33.0935  33.5849  34.7276  35.8095  37.8838

          k =-0.0000 0.0000 0.0000 (   953 PWs)   bands (ev):

   -48.0913 -47.9806 -22.1755 -21.7550 -21.7550 -21.6740 -21.6740 -21.5695
     3.6499  10.5548  13.3892  13.3892  14.1299  16.2308  16.3424  16.3424
    16.6475  16.6475  17.5757  17.5757  19.2062  22.6321  22.6321  26.9424
    28.0750  33.7095  33.7095  34.2668  36.5250  37.8296

     Writing output data file ./outs/v2c.save/

     init_run     :      1.19s CPU      1.46s WALL (       1 calls)
     electrons    :     82.42s CPU     85.70s WALL (       1 calls)

     Called by init_run:
     wfcinit      :      0.00s CPU      0.00s WALL (       1 calls)
     wfcinit:atom :      0.05s CPU      0.05s WALL (      61 calls)
     wfcinit:wfcr :      4.17s CPU      4.24s WALL (      61 calls)
     potinit      :      0.22s CPU      0.24s WALL (       1 calls)
     hinit0       :      0.86s CPU      0.89s WALL (       1 calls)

     Called by electrons:
     c_bands      :     82.42s CPU     85.69s WALL (       1 calls)
     v_of_rho     :      0.08s CPU      0.08s WALL (       1 calls)
     v_h          :      0.00s CPU      0.00s WALL (       1 calls)
     v_xc         :      0.08s CPU      0.07s WALL (       1 calls)
     newd         :      0.08s CPU      0.29s WALL (       1 calls)
     PAW_pot      :      0.12s CPU      0.13s WALL (       1 calls)

     Called by c_bands:
     init_us_2    :      0.05s CPU      0.07s WALL (      61 calls)
     cegterg      :     77.75s CPU     79.82s WALL (      97 calls)

     Called by sum_band:

     Called by *egterg:
     cdiaghg      :      5.53s CPU      5.70s WALL (    1546 calls)
     cegterg:over :     10.14s CPU     10.55s WALL (    1485 calls)
     cegterg:upda :      6.34s CPU      6.55s WALL (    1485 calls)
     cegterg:last :     17.66s CPU     18.18s WALL (     768 calls)
     h_psi        :     34.47s CPU     35.24s WALL (    1643 calls)
     s_psi        :      5.44s CPU      5.54s WALL (    1643 calls)
     g_psi        :      0.34s CPU      0.32s WALL (    1485 calls)

     Called by h_psi:
     h_psi:calbec :      5.47s CPU      5.11s WALL (    1643 calls)
     vloc_psi     :     23.69s CPU     24.37s WALL (    1643 calls)
     add_vuspsi   :      5.20s CPU      5.64s WALL (    1643 calls)

     General routines
     calbec       :      5.44s CPU      5.10s WALL (    1643 calls)
     fft          :      0.03s CPU      0.04s WALL (      13 calls)
     ffts         :      0.02s CPU      0.02s WALL (       1 calls)
     fftw         :     20.64s CPU     20.82s WALL (   50948 calls)
     interpolate  :      0.02s CPU      0.03s WALL (       1 calls)
     davcio       :      0.00s CPU      1.11s WALL (     122 calls)

     Parallel routines

     PAW routines
     PAW_pot      :      0.12s CPU      0.13s WALL (       1 calls)

     PWSCF        :   1m24.53s CPU   1m28.45s WALL


   This run was terminated on:  22:47:15  31May2024            

=------------------------------------------------------------------------------=
   JOB DONE.
=------------------------------------------------------------------------------=
