
     Program BANDS v.6.7MaX starts on 31May2024 at 22:48:29 

     This program is part of the open-source Quantum ESPRESSO suite
     for quantum simulation of materials; please cite
         "P. Giannozzi et al., J. Phys.:Condens. Matter 21 395502 (2009);
         "P. Giannozzi et al., J. Phys.:Condens. Matter 29 465901 (2017);
          URL http://www.quantum-espresso.org", 
     in publications or presentations arising from this work. More details at
     http://www.quantum-espresso.org/quote

     Parallel version (MPI), running on     1 processors

     MPI processes distributed on     1 nodes

     Reading xml data from directory:

     ./outs/v2c.save/
     file C.pbe-n-kjpaw_psl.1.0.0.UPF: wavefunction(s)  2S 2P renormalized

     IMPORTANT: XC functional enforced from input :
     Exchange-correlation= PBE
                           (   1   4   3   4   0   0   0)
     Any further DFT definition will be discarded
     Please, verify this is what you really want


     G-vector sticks info
     --------------------
     sticks:   dense  smooth     PW     G-vecs:    dense   smooth      PW
     Sum         649     313    109                21181     7415    1339


     Check: negative core charge=   -0.000009

     negative rho (up, down):  2.467E-03 0.000E+00
     Reading collected, re-writing distributed wavefunctions
     high-symmetry point:  0.0000 0.0000 0.0000   x coordinate   0.0000
     high-symmetry point: -0.5000-0.2887 0.0000   x coordinate   0.5774
     high-symmetry point: -0.3334-0.5774 0.0000   x coordinate   0.9107
     high-symmetry point:  0.0000 0.0000 0.0000   x coordinate   0.9107

     Plottable bands (eV) written to file v2c_bands.dat.gnu
     Bands written to file v2c_bands.dat

 **************************************************************************

                    xk=(   0.00000,   0.00000,   0.00000  )

     point group D_3d (-3m) 
     there are  6 classes
     the character table:

       E     2C3   3C2'  i     2S6   3s_d 
A_1g   1.00  1.00  1.00  1.00  1.00  1.00
A_2g   1.00  1.00 -1.00  1.00  1.00 -1.00
E_g    2.00 -1.00  0.00  2.00 -1.00  0.00
A_1u   1.00  1.00  1.00 -1.00 -1.00 -1.00
A_2u   1.00  1.00 -1.00 -1.00 -1.00  1.00
E_u    2.00 -1.00  0.00 -2.00  1.00  0.00

     the symmetry operations in each class and the name of the first element:

     E        1
                                                                 
     2C3      3    4
                                                                 
     3C2'     2    5    6
                                                                 
     i        7
                                                                 
     2S6      9   10
                                                                 
     3s_d     8   11   12
                                                                 

     Band symmetry, D_3d (-3m)  point group:

     e(  1 -  1) =    -48.09134  eV     1   --> A_1g L_1       
     e(  2 -  2) =    -47.98060  eV     1   --> A_2u L_2'      
     e(  3 -  3) =    -22.17552  eV     1   --> A_1g L_1       
     e(  4 -  5) =    -21.75500  eV     2   --> E_g  L_3       
     e(  6 -  7) =    -21.67405  eV     2   --> E_u  L_3'      
     e(  8 -  8) =    -21.56946  eV     1   --> A_2u L_2'      
     e(  9 -  9) =      3.64989  eV     1   --> A_1g L_1       
     e( 10 - 10) =     10.55477  eV     1   --> A_2u L_2'      
     e( 11 - 12) =     13.38915  eV     2   --> E_u  L_3'      
     e( 13 - 13) =     14.12987  eV     1   --> A_1g L_1       
     e( 14 - 14) =     16.23076  eV     1   --> A_1g L_1       
     e( 15 - 16) =     16.34235  eV     2   --> E_g  L_3       
     e( 17 - 18) =     16.64752  eV     2   --> E_g  L_3       
     e( 19 - 20) =     17.57575  eV     2   --> E_u  L_3'      
     e( 21 - 21) =     19.20616  eV     1   --> A_2u L_2'      
     e( 22 - 23) =     22.63213  eV     2   --> E_u  L_3'      
     e( 24 - 24) =     26.94243  eV     1   --> A_1g L_1       
     e( 25 - 25) =     28.07504  eV     1   --> A_2u L_2'      
     e( 26 - 27) =     33.70945  eV     2   --> E_g  L_3       
     e( 28 - 28) =     34.26684  eV     1   --> A_2u L_2'      
     e( 29 - 29) =     36.52499  eV     1   --> A_1g L_1       
     e( 30 - 30) =     37.82955  eV     1   -->   ?

 **************************************************************************

 **************************************************************************

                    xk=(  -0.02500,  -0.01443,   0.00000  )

     point group C_s (m)    
     there are  2 classes
     the character table:

       E     s    
A'     1.00  1.00
A''    1.00 -1.00

     the symmetry operations in each class and the name of the first element:

     E        1
                                                                 
     s        2
                                                                 

     Band symmetry, C_s (m)     point group:

     e(  1 -  1) =    -48.09087  eV     1   --> A'             
     e(  2 -  2) =    -47.98043  eV     1   --> A'             
     e(  3 -  3) =    -22.17433  eV     1   --> A'             
     e(  4 -  4) =    -21.75737  eV     1   --> A'             
     e(  5 -  5) =    -21.75588  eV     1   --> A''            
     e(  6 -  6) =    -21.67633  eV     1   --> A'             
     e(  7 -  7) =    -21.67422  eV     1   --> A''            
     e(  8 -  8) =    -21.56991  eV     1   --> A'             
     e(  9 -  9) =      3.66073  eV     1   --> A'             
     e( 10 - 10) =     10.56845  eV     1   --> A'             
     e( 11 - 11) =     13.33630  eV     1   --> A'             
     e( 12 - 12) =     13.39007  eV     1   --> A''            
     e( 13 - 13) =     14.15535  eV     1   --> A'             
     e( 14 - 14) =     16.24418  eV     1   --> A'             
     e( 15 - 15) =     16.31256  eV     1   --> A'             
     e( 16 - 16) =     16.35136  eV     1   --> A''            
     e( 17 - 17) =     16.63067  eV     1   --> A'             
     e( 18 - 18) =     16.63552  eV     1   --> A''            
     e( 19 - 19) =     17.59489  eV     1   --> A''            
     e( 20 - 20) =     17.60299  eV     1   --> A'             
     e( 21 - 21) =     19.22928  eV     1   --> A'             
     e( 22 - 22) =     22.61206  eV     1   --> A'             
     e( 23 - 23) =     22.62657  eV     1   --> A''            
     e( 24 - 24) =     26.98274  eV     1   --> A'             
     e( 25 - 25) =     28.08233  eV     1   --> A'             
     e( 26 - 26) =     33.53050  eV     1   --> A'             
     e( 27 - 27) =     33.69522  eV     1   --> A''            
     e( 28 - 28) =     34.41661  eV     1   --> A'             
     e( 29 - 29) =     36.30459  eV     1   --> A'             
     e( 30 - 30) =     37.84552  eV     1   --> A''            

 **************************************************************************

 **************************************************************************

                    xk=(  -0.05000,  -0.02887,   0.00000  )

     Band symmetry, C_s (m)     point group:

     e(  1 -  1) =    -48.08947  eV     1   --> A'             
     e(  2 -  2) =    -47.97993  eV     1   --> A'             
     e(  3 -  3) =    -22.17079  eV     1   --> A'             
     e(  4 -  4) =    -21.76439  eV     1   --> A'             
     e(  5 -  5) =    -21.75848  eV     1   --> A''            
     e(  6 -  6) =    -21.68311  eV     1   --> A'             
     e(  7 -  7) =    -21.67475  eV     1   --> A''            
     e(  8 -  8) =    -21.57126  eV     1   --> A'             
     e(  9 -  9) =      3.69304  eV     1   --> A'             
     e( 10 - 10) =     10.60915  eV     1   --> A'             
     e( 11 - 11) =     13.19939  eV     1   --> A'             
     e( 12 - 12) =     13.39238  eV     1   --> A''            
     e( 13 - 13) =     14.21174  eV     1   --> A'             
     e( 14 - 14) =     16.22739  eV     1   --> A'             
     e( 15 - 15) =     16.28038  eV     1   --> A'             
     e( 16 - 16) =     16.37696  eV     1   --> A''            
     e( 17 - 17) =     16.58720  eV     1   --> A'             
     e( 18 - 18) =     16.60582  eV     1   --> A''            
     e( 19 - 19) =     17.64771  eV     1   --> A''            
     e( 20 - 20) =     17.68046  eV     1   --> A'             
     e( 21 - 21) =     19.29499  eV     1   --> A'             
     e( 22 - 22) =     22.55392  eV     1   --> A'             
     e( 23 - 23) =     22.60966  eV     1   --> A''            
     e( 24 - 24) =     27.10106  eV     1   --> A'             
     e( 25 - 25) =     28.10381  eV     1   --> A'             
     e( 26 - 26) =     33.18699  eV     1   --> A'             
     e( 27 - 27) =     33.65435  eV     1   --> A''            
     e( 28 - 28) =     34.63958  eV     1   --> A'             
     e( 29 - 29) =     35.92571  eV     1   --> A'             
     e( 30 - 30) =     37.89155  eV     1   --> A''            

 **************************************************************************

 **************************************************************************

                    xk=(  -0.07500,  -0.04330,   0.00000  )

     Band symmetry, C_s (m)     point group:

     e(  1 -  1) =    -48.08716  eV     1   --> A'             
     e(  2 -  2) =    -47.97912  eV     1   --> A'             
     e(  3 -  3) =    -22.16495  eV     1   --> A'             
     e(  4 -  4) =    -21.77590  eV     1   --> A'             
     e(  5 -  5) =    -21.76269  eV     1   --> A''            
     e(  6 -  6) =    -21.69419  eV     1   --> A'             
     e(  7 -  7) =    -21.67568  eV     1   --> A''            
     e(  8 -  8) =    -21.57354  eV     1   --> A'             
     e(  9 -  9) =      3.74625  eV     1   --> A'             
     e( 10 - 10) =     10.67600  eV     1   --> A'             
     e( 11 - 11) =     13.01280  eV     1   --> A'             
     e( 12 - 12) =     13.39493  eV     1   --> A''            
     e( 13 - 13) =     14.26903  eV     1   --> A'             
     e( 14 - 14) =     16.09757  eV     1   --> A'             
     e( 15 - 15) =     16.32116  eV     1   --> A'             
     e( 16 - 16) =     16.41218  eV     1   --> A''            
     e( 17 - 17) =     16.54057  eV     1   --> A'             
     e( 18 - 18) =     16.57654  eV     1   --> A''            
     e( 19 - 19) =     17.72392  eV     1   --> A''            
     e( 20 - 20) =     17.79920  eV     1   --> A'             
     e( 21 - 21) =     19.39455  eV     1   --> A'             
     e( 22 - 22) =     22.46285  eV     1   --> A'             
     e( 23 - 23) =     22.58080  eV     1   --> A''            
     e( 24 - 24) =     27.29028  eV     1   --> A'             
     e( 25 - 25) =     28.13858  eV     1   --> A'             
     e( 26 - 26) =     32.77795  eV     1   --> A'             
     e( 27 - 27) =     33.59178  eV     1   --> A''            
     e( 28 - 28) =     34.70898  eV     1   --> A'             
     e( 29 - 29) =     35.70128  eV     1   --> A'             
     e( 30 - 30) =     37.96191  eV     1   --> A''            

 **************************************************************************

 **************************************************************************

                    xk=(  -0.10000,  -0.05774,   0.00000  )

     Band symmetry, C_s (m)     point group:

     e(  1 -  1) =    -48.08399  eV     1   --> A'             
     e(  2 -  2) =    -47.97804  eV     1   --> A'             
     e(  3 -  3) =    -22.15687  eV     1   --> A'             
     e(  4 -  4) =    -21.79161  eV     1   --> A'             
     e(  5 -  5) =    -21.76833  eV     1   --> A''            
     e(  6 -  6) =    -21.70925  eV     1   --> A'             
     e(  7 -  7) =    -21.67704  eV     1   --> A''            
     e(  8 -  8) =    -21.57677  eV     1   --> A'             
     e(  9 -  9) =      3.81936  eV     1   --> A'             
     e( 10 - 10) =     10.76739  eV     1   --> A'             
     e( 11 - 11) =     12.79901  eV     1   --> A'             
     e( 12 - 12) =     13.39577  eV     1   --> A''            
     e( 13 - 13) =     14.31141  eV     1   --> A'             
     e( 14 - 14) =     15.93623  eV     1   --> A'             
     e( 15 - 15) =     16.31624  eV     1   --> A'             
     e( 16 - 16) =     16.43461  eV     1   --> A''            
     e( 17 - 17) =     16.54446  eV     1   --> A'             
     e( 18 - 18) =     16.58155  eV     1   --> A''            
     e( 19 - 19) =     17.81318  eV     1   --> A''            
     e( 20 - 20) =     17.95078  eV     1   --> A'             
     e( 21 - 21) =     19.51736  eV     1   --> A'             
     e( 22 - 22) =     22.34599  eV     1   --> A'             
     e( 23 - 23) =     22.53882  eV     1   --> A''            
     e( 24 - 24) =     27.54020  eV     1   --> A'             
     e( 25 - 25) =     28.18473  eV     1   --> A'             
     e( 26 - 26) =     32.31238  eV     1   --> A'             
     e( 27 - 27) =     33.51420  eV     1   --> A''            
     e( 28 - 28) =     34.52691  eV     1   --> A'             
     e( 29 - 29) =     35.74231  eV     1   --> A'             
     e( 30 - 30) =     38.04571  eV     1   --> A''            

 **************************************************************************

 **************************************************************************

                    xk=(  -0.12500,  -0.07217,   0.00000  )

     Band symmetry, C_s (m)     point group:

     e(  1 -  1) =    -48.08001  eV     1   --> A'             
     e(  2 -  2) =    -47.97672  eV     1   --> A'             
     e(  3 -  3) =    -22.14667  eV     1   --> A'             
     e(  4 -  4) =    -21.81112  eV     1   --> A'             
     e(  5 -  5) =    -21.77521  eV     1   --> A''            
     e(  6 -  6) =    -21.72787  eV     1   --> A'             
     e(  7 -  7) =    -21.67886  eV     1   --> A''            
     e(  8 -  8) =    -21.58098  eV     1   --> A'             
     e(  9 -  9) =      3.91106  eV     1   --> A'             
     e( 10 - 10) =     10.88103  eV     1   --> A'             
     e( 11 - 11) =     12.57089  eV     1   --> A'             
     e( 12 - 12) =     13.39281  eV     1   --> A''            
     e( 13 - 13) =     14.33377  eV     1   --> A'             
     e( 14 - 14) =     15.75596  eV     1   --> A'             
     e( 15 - 15) =     16.24954  eV     1   --> A'             
     e( 16 - 16) =     16.43143  eV     1   --> A''            
     e( 17 - 17) =     16.61657  eV     1   --> A'             
     e( 18 - 18) =     16.64282  eV     1   --> A''            
     e( 19 - 19) =     17.90766  eV     1   --> A''            
     e( 20 - 20) =     18.12761  eV     1   --> A'             
     e( 21 - 21) =     19.65440  eV     1   --> A'             
     e( 22 - 22) =     22.21078  eV     1   --> A'             
     e( 23 - 23) =     22.48268  eV     1   --> A''            
     e( 24 - 24) =     27.83860  eV     1   --> A'             
     e( 25 - 25) =     28.23965  eV     1   --> A'             
     e( 26 - 26) =     31.79544  eV     1   --> A'             
     e( 27 - 27) =     33.42890  eV     1   --> A''            
     e( 28 - 28) =     34.25603  eV     1   --> A'             
     e( 29 - 29) =     35.84170  eV     1   --> A'             
     e( 30 - 30) =     37.72505  eV     1   --> A'             

 **************************************************************************

 **************************************************************************

                    xk=(  -0.15000,  -0.08660,   0.00000  )

     Band symmetry, C_s (m)     point group:

     e(  1 -  1) =    -48.07532  eV     1   --> A'             
     e(  2 -  2) =    -47.97522  eV     1   --> A'             
     e(  3 -  3) =    -22.13449  eV     1   --> A'             
     e(  4 -  4) =    -21.83395  eV     1   --> A'             
     e(  5 -  5) =    -21.78309  eV     1   --> A''            
     e(  6 -  6) =    -21.74951  eV     1   --> A'             
     e(  7 -  7) =    -21.68114  eV     1   --> A''            
     e(  8 -  8) =    -21.58619  eV     1   --> A'             
     e(  9 -  9) =      4.01956  eV     1   --> A'             
     e( 10 - 10) =     11.01374  eV     1   --> A'             
     e( 11 - 11) =     12.33639  eV     1   --> A'             
     e( 12 - 12) =     13.38362  eV     1   --> A''            
     e( 13 - 13) =     14.33567  eV     1   --> A'             
     e( 14 - 14) =     15.56775  eV     1   --> A'             
     e( 15 - 15) =     16.16142  eV     1   --> A'             
     e( 16 - 16) =     16.42991  eV     1   --> A''            
     e( 17 - 17) =     16.71824  eV     1   --> A'             
     e( 18 - 18) =     16.73941  eV     1   --> A''            
     e( 19 - 19) =     18.00194  eV     1   --> A''            
     e( 20 - 20) =     18.32123  eV     1   --> A'             
     e( 21 - 21) =     19.79976  eV     1   --> A'             
     e( 22 - 22) =     22.06405  eV     1   --> A'             
     e( 23 - 23) =     22.41068  eV     1   --> A''            
     e( 24 - 24) =     28.16556  eV     1   --> A'             
     e( 25 - 25) =     28.30538  eV     1   --> A'             
     e( 26 - 26) =     31.24197  eV     1   --> A'             
     e( 27 - 27) =     33.34226  eV     1   --> A''            
     e( 28 - 28) =     34.00050  eV     1   --> A'             
     e( 29 - 29) =     35.82948  eV     1   --> A'             
     e( 30 - 30) =     37.35478  eV     1   --> A'             

 **************************************************************************

 **************************************************************************

                    xk=(  -0.17500,  -0.10104,   0.00000  )

     Band symmetry, C_s (m)     point group:

     e(  1 -  1) =    -48.06999  eV     1   --> A'             
     e(  2 -  2) =    -47.97360  eV     1   --> A'             
     e(  3 -  3) =    -22.12048  eV     1   --> A'             
     e(  4 -  4) =    -21.85955  eV     1   --> A'             
     e(  5 -  5) =    -21.79176  eV     1   --> A''            
     e(  6 -  6) =    -21.77358  eV     1   --> A'             
     e(  7 -  7) =    -21.68387  eV     1   --> A''            
     e(  8 -  8) =    -21.59242  eV     1   --> A'             
     e(  9 -  9) =      4.14280  eV     1   --> A'             
     e( 10 - 10) =     11.16158  eV     1   --> A'             
     e( 11 - 11) =     12.10137  eV     1   --> A'             
     e( 12 - 12) =     13.36652  eV     1   --> A''            
     e( 13 - 13) =     14.31817  eV     1   --> A'             
     e( 14 - 14) =     15.38135  eV     1   --> A'             
     e( 15 - 15) =     16.07142  eV     1   --> A'             
     e( 16 - 16) =     16.44804  eV     1   --> A''            
     e( 17 - 17) =     16.83278  eV     1   --> A'             
     e( 18 - 18) =     16.85706  eV     1   --> A''            
     e( 19 - 19) =     18.09251  eV     1   --> A''            
     e( 20 - 20) =     18.52099  eV     1   --> A'             
     e( 21 - 21) =     19.95167  eV     1   --> A'             
     e( 22 - 22) =     21.91246  eV     1   --> A'             
     e( 23 - 23) =     22.32177  eV     1   --> A''            
     e( 24 - 24) =     28.32875  eV     1   --> A'             
     e( 25 - 25) =     28.55233  eV     1   --> A'             
     e( 26 - 26) =     30.67422  eV     1   --> A'             
     e( 27 - 27) =     33.25966  eV     1   --> A''            
     e( 28 - 28) =     33.77798  eV     1   --> A'             
     e( 29 - 29) =     35.68157  eV     1   --> A'             
     e( 30 - 30) =     36.85390  eV     1   --> A'             

 **************************************************************************

 **************************************************************************

                    xk=(  -0.20000,  -0.11547,   0.00000  )

     Band symmetry, C_s (m)     point group:

     e(  1 -  1) =    -48.06413  eV     1   --> A'             
     e(  2 -  2) =    -47.97193  eV     1   --> A'             
     e(  3 -  3) =    -22.10485  eV     1   --> A'             
     e(  4 -  4) =    -21.88728  eV     1   --> A'             
     e(  5 -  5) =    -21.80096  eV     1   --> A''            
     e(  6 -  6) =    -21.79944  eV     1   --> A'             
     e(  7 -  7) =    -21.68701  eV     1   --> A''            
     e(  8 -  8) =    -21.59967  eV     1   --> A'             
     e(  9 -  9) =      4.27835  eV     1   --> A'             
     e( 10 - 10) =     11.31895  eV     1   --> A'             
     e( 11 - 11) =     11.87077  eV     1   --> A'             
     e( 12 - 12) =     13.34055  eV     1   --> A''            
     e( 13 - 13) =     14.28210  eV     1   --> A'             
     e( 14 - 14) =     15.20571  eV     1   --> A'             
     e( 15 - 15) =     15.98800  eV     1   --> A'             
     e( 16 - 16) =     16.49267  eV     1   --> A''            
     e( 17 - 17) =     16.95560  eV     1   --> A'             
     e( 18 - 18) =     16.99008  eV     1   --> A''            
     e( 19 - 19) =     18.17713  eV     1   --> A''            
     e( 20 - 20) =     18.71363  eV     1   --> A'             
     e( 21 - 21) =     20.11153  eV     1   --> A'             
     e( 22 - 22) =     21.76215  eV     1   --> A'             
     e( 23 - 23) =     22.21493  eV     1   --> A''            
     e( 24 - 24) =     28.35846  eV     1   --> A'             
     e( 25 - 25) =     28.91889  eV     1   --> A'             
     e( 26 - 26) =     30.12073  eV     1   --> A'             
     e( 27 - 27) =     33.18485  eV     1   --> A''            
     e( 28 - 28) =     33.58342  eV     1   --> A'             
     e( 29 - 29) =     35.45631  eV     1   --> A'             
     e( 30 - 30) =     36.24423  eV     1   --> A'             

 **************************************************************************

 **************************************************************************

                    xk=(  -0.22500,  -0.12990,   0.00000  )

     Band symmetry, C_s (m)     point group:

     e(  1 -  1) =    -48.05784  eV     1   --> A'             
     e(  2 -  2) =    -47.97028  eV     1   --> A'             
     e(  3 -  3) =    -22.08784  eV     1   --> A'             
     e(  4 -  4) =    -21.91643  eV     1   --> A'             
     e(  5 -  5) =    -21.82642  eV     1   --> A'             
     e(  6 -  6) =    -21.81048  eV     1   --> A''            
     e(  7 -  7) =    -21.69046  eV     1   --> A''            
     e(  8 -  8) =    -21.60795  eV     1   --> A'             
     e(  9 -  9) =      4.42342  eV     1   --> A'             
     e( 10 - 10) =     11.47165  eV     1   --> A'             
     e( 11 - 11) =     11.65663  eV     1   --> A'             
     e( 12 - 12) =     13.30581  eV     1   --> A''            
     e( 13 - 13) =     14.22758  eV     1   --> A'             
     e( 14 - 14) =     15.04935  eV     1   --> A'             
     e( 15 - 15) =     15.91672  eV     1   --> A'             
     e( 16 - 16) =     16.56616  eV     1   --> A''            
     e( 17 - 17) =     17.08560  eV     1   --> A'             
     e( 18 - 18) =     17.13480  eV     1   --> A''            
     e( 19 - 19) =     18.25451  eV     1   --> A''            
     e( 20 - 20) =     18.88479  eV     1   --> A'             
     e( 21 - 21) =     20.28120  eV     1   --> A'             
     e( 22 - 22) =     21.62104  eV     1   --> A'             
     e( 23 - 23) =     22.08963  eV     1   --> A''            
     e( 24 - 24) =     28.32557  eV     1   --> A'             
     e( 25 - 25) =     29.27527  eV     1   --> A'             
     e( 26 - 26) =     29.63201  eV     1   --> A'             
     e( 27 - 27) =     33.12018  eV     1   --> A''            
     e( 28 - 28) =     33.40763  eV     1   --> A'             
     e( 29 - 29) =     35.18036  eV     1   --> A'             
     e( 30 - 30) =     35.64853  eV     1   --> A'             

 **************************************************************************

 **************************************************************************

                    xk=(  -0.25000,  -0.14434,   0.00000  )

     Band symmetry, C_s (m)     point group:

     e(  1 -  1) =    -48.05126  eV     1   --> A'             
     e(  2 -  2) =    -47.96873  eV     1   --> A'             
     e(  3 -  3) =    -22.06975  eV     1   --> A'             
     e(  4 -  4) =    -21.94621  eV     1   --> A'             
     e(  5 -  5) =    -21.85382  eV     1   --> A'             
     e(  6 -  6) =    -21.82007  eV     1   --> A''            
     e(  7 -  7) =    -21.69415  eV     1   --> A''            
     e(  8 -  8) =    -21.61721  eV     1   --> A'             
     e(  9 -  9) =      4.57494  eV     1   --> A'             
     e( 10 - 10) =     11.40926  eV     1   --> A'             
     e( 11 - 11) =     11.66597  eV     1   --> A'             
     e( 12 - 12) =     13.26356  eV     1   --> A''            
     e( 13 - 13) =     14.15472  eV     1   --> A'             
     e( 14 - 14) =     14.91965  eV     1   --> A'             
     e( 15 - 15) =     15.86190  eV     1   --> A'             
     e( 16 - 16) =     16.66829  eV     1   --> A''            
     e( 17 - 17) =     17.22280  eV     1   --> A'             
     e( 18 - 18) =     17.28786  eV     1   --> A''            
     e( 19 - 19) =     18.32402  eV     1   --> A''            
     e( 20 - 20) =     19.02219  eV     1   --> A'             
     e( 21 - 21) =     20.45490  eV     1   --> A'             
     e( 22 - 22) =     21.50348  eV     1   --> A'             
     e( 23 - 23) =     21.94612  eV     1   --> A''            
     e( 24 - 24) =     28.16704  eV     1   --> A'             
     e( 25 - 25) =     29.22074  eV     1   --> A'             
     e( 26 - 26) =     29.65726  eV     1   --> A'             
     e( 27 - 27) =     33.06652  eV     1   --> A''            
     e( 28 - 28) =     33.23857  eV     1   --> A'             
     e( 29 - 29) =     34.76274  eV     1   --> A'             
     e( 30 - 30) =     35.25315  eV     1   --> A'             

 **************************************************************************

 **************************************************************************

                    xk=(  -0.27500,  -0.15877,   0.00000  )

     Band symmetry, C_s (m)     point group:

     e(  1 -  1) =    -48.04450  eV     1   --> A'             
     e(  2 -  2) =    -47.96733  eV     1   --> A'             
     e(  3 -  3) =    -22.05108  eV     1   --> A'             
     e(  4 -  4) =    -21.97567  eV     1   --> A'             
     e(  5 -  5) =    -21.88100  eV     1   --> A'             
     e(  6 -  6) =    -21.82951  eV     1   --> A''            
     e(  7 -  7) =    -21.69797  eV     1   --> A''            
     e(  8 -  8) =    -21.62741  eV     1   --> A'             
     e(  9 -  9) =      4.72953  eV     1   --> A'             
     e( 10 - 10) =     11.21060  eV     1   --> A'             
     e( 11 - 11) =     11.81592  eV     1   --> A'             
     e( 12 - 12) =     13.21569  eV     1   --> A''            
     e( 13 - 13) =     14.06536  eV     1   --> A'             
     e( 14 - 14) =     14.82098  eV     1   --> A'             
     e( 15 - 15) =     15.82686  eV     1   --> A'             
     e( 16 - 16) =     16.79698  eV     1   --> A''            
     e( 17 - 17) =     17.36756  eV     1   --> A'             
     e( 18 - 18) =     17.44571  eV     1   --> A''            
     e( 19 - 19) =     18.38552  eV     1   --> A''            
     e( 20 - 20) =     19.11984  eV     1   --> A'             
     e( 21 - 21) =     20.60201  eV     1   --> A'             
     e( 22 - 22) =     21.44342  eV     1   --> A'             
     e( 23 - 23) =     21.78513  eV     1   --> A''            
     e( 24 - 24) =     27.84028  eV     1   --> A'             
     e( 25 - 25) =     29.01472  eV     1   --> A'             
     e( 26 - 26) =     29.96057  eV     1   --> A'             
     e( 27 - 27) =     33.02379  eV     1   --> A''            
     e( 28 - 28) =     33.05101  eV     1   --> A'             
     e( 29 - 29) =     34.26948  eV     1   --> A'             
     e( 30 - 30) =     35.06585  eV     1   --> A'             

 **************************************************************************

 **************************************************************************

                    xk=(  -0.30000,  -0.17321,   0.00000  )

     Band symmetry, C_s (m)     point group:

     e(  1 -  1) =    -48.03772  eV     1   --> A'             
     e(  2 -  2) =    -47.96616  eV     1   --> A'             
     e(  3 -  3) =    -22.03372  eV     1   --> A'             
     e(  4 -  4) =    -22.00247  eV     1   --> A'             
     e(  5 -  5) =    -21.90729  eV     1   --> A'             
     e(  6 -  6) =    -21.83861  eV     1   --> A''            
     e(  7 -  7) =    -21.70179  eV     1   --> A''            
     e(  8 -  8) =    -21.63845  eV     1   --> A'             
     e(  9 -  9) =      4.88358  eV     1   --> A'             
     e( 10 - 10) =     11.02014  eV     1   --> A'             
     e( 11 - 11) =     11.95787  eV     1   --> A'             
     e( 12 - 12) =     13.16465  eV     1   --> A''            
     e( 13 - 13) =     13.96458  eV     1   --> A'             
     e( 14 - 14) =     14.75305  eV     1   --> A'             
     e( 15 - 15) =     15.81371  eV     1   --> A'             
     e( 16 - 16) =     16.94882  eV     1   --> A''            
     e( 17 - 17) =     17.52038  eV     1   --> A'             
     e( 18 - 18) =     17.60455  eV     1   --> A''            
     e( 19 - 19) =     18.43925  eV     1   --> A''            
     e( 20 - 20) =     19.17925  eV     1   --> A'             
     e( 21 - 21) =     20.65817  eV     1   --> A'             
     e( 22 - 22) =     21.50187  eV     1   --> A'             
     e( 23 - 23) =     21.60840  eV     1   --> A''            
     e( 24 - 24) =     27.41111  eV     1   --> A'             
     e( 25 - 25) =     28.89934  eV     1   --> A'             
     e( 26 - 26) =     30.21329  eV     1   --> A'             
     e( 27 - 27) =     32.79657  eV     1   --> A'             
     e( 28 - 28) =     32.99128  eV     1   --> A''            
     e( 29 - 29) =     33.89612  eV     1   --> A'             
     e( 30 - 30) =     34.97221  eV     1   --> A'             

 **************************************************************************

 **************************************************************************

                    xk=(  -0.32500,  -0.18764,   0.00000  )

     Band symmetry, C_s (m)     point group:

     e(  1 -  1) =    -48.03105  eV     1   --> A'             
     e(  2 -  2) =    -47.96527  eV     1   --> A'             
     e(  3 -  3) =    -22.03807  eV     1   --> A'             
     e(  4 -  4) =    -22.00585  eV     1   --> A'             
     e(  5 -  5) =    -21.93208  eV     1   --> A'             
     e(  6 -  6) =    -21.84715  eV     1   --> A''            
     e(  7 -  7) =    -21.70552  eV     1   --> A''            
     e(  8 -  8) =    -21.65018  eV     1   --> A'             
     e(  9 -  9) =      5.03321  eV     1   --> A'             
     e( 10 - 10) =     10.84440  eV     1   --> A'             
     e( 11 - 11) =     12.08218  eV     1   --> A'             
     e( 12 - 12) =     13.11296  eV     1   --> A''            
     e( 13 - 13) =     13.85967  eV     1   --> A'             
     e( 14 - 14) =     14.71169  eV     1   --> A'             
     e( 15 - 15) =     15.82274  eV     1   --> A'             
     e( 16 - 16) =     17.11927  eV     1   --> A''            
     e( 17 - 17) =     17.68179  eV     1   --> A'             
     e( 18 - 18) =     17.76024  eV     1   --> A''            
     e( 19 - 19) =     18.48572  eV     1   --> A''            
     e( 20 - 20) =     19.20741  eV     1   --> A'             
     e( 21 - 21) =     20.59788  eV     1   --> A'             
     e( 22 - 22) =     21.41852  eV     1   --> A''            
     e( 23 - 23) =     21.69655  eV     1   --> A'             
     e( 24 - 24) =     26.95482  eV     1   --> A'             
     e( 25 - 25) =     28.80249  eV     1   --> A'             
     e( 26 - 26) =     30.39445  eV     1   --> A'             
     e( 27 - 27) =     32.45880  eV     1   --> A'             
     e( 28 - 28) =     32.96771  eV     1   --> A''            
     e( 29 - 29) =     33.70845  eV     1   --> A'             
     e( 30 - 30) =     34.94488  eV     1   --> A'             

 **************************************************************************

 **************************************************************************

                    xk=(  -0.35000,  -0.20207,   0.00000  )

     Band symmetry, C_s (m)     point group:

     e(  1 -  1) =    -48.02464  eV     1   --> A'             
     e(  2 -  2) =    -47.96470  eV     1   --> A'             
     e(  3 -  3) =    -22.06143  eV     1   --> A'             
     e(  4 -  4) =    -21.98824  eV     1   --> A'             
     e(  5 -  5) =    -21.95480  eV     1   --> A'             
     e(  6 -  6) =    -21.85496  eV     1   --> A''            
     e(  7 -  7) =    -21.70902  eV     1   --> A''            
     e(  8 -  8) =    -21.66239  eV     1   --> A'             
     e(  9 -  9) =      5.17446  eV     1   --> A'             
     e( 10 - 10) =     10.68597  eV     1   --> A'             
     e( 11 - 11) =     12.18503  eV     1   --> A'             
     e( 12 - 12) =     13.06313  eV     1   --> A''            
     e( 13 - 13) =     13.75791  eV     1   --> A'             
     e( 14 - 14) =     14.69101  eV     1   --> A'             
     e( 15 - 15) =     15.85190  eV     1   --> A'             
     e( 16 - 16) =     17.30267  eV     1   --> A''            
     e( 17 - 17) =     17.85245  eV     1   --> A'             
     e( 18 - 18) =     17.90837  eV     1   --> A''            
     e( 19 - 19) =     18.52572  eV     1   --> A''            
     e( 20 - 20) =     19.21344  eV     1   --> A'             
     e( 21 - 21) =     20.46439  eV     1   --> A'             
     e( 22 - 22) =     21.21942  eV     1   --> A''            
     e( 23 - 23) =     21.97537  eV     1   --> A'             
     e( 24 - 24) =     26.50497  eV     1   --> A'             
     e( 25 - 25) =     28.69191  eV     1   --> A'             
     e( 26 - 26) =     30.49192  eV     1   --> A'             
     e( 27 - 27) =     32.10936  eV     1   --> A'             
     e( 28 - 28) =     32.95166  eV     1   --> A''            
     e( 29 - 29) =     33.65354  eV     1   --> A'             
     e( 30 - 30) =     34.97641  eV     1   --> A'             

 **************************************************************************

 **************************************************************************

                    xk=(  -0.37500,  -0.21651,   0.00000  )

     Band symmetry, C_s (m)     point group:

     e(  1 -  1) =    -48.01865  eV     1   --> A'             
     e(  2 -  2) =    -47.96444  eV     1   --> A'             
     e(  3 -  3) =    -22.08375  eV     1   --> A'             
     e(  4 -  4) =    -21.97525  eV     1   --> A'             
     e(  5 -  5) =    -21.96925  eV     1   --> A'             
     e(  6 -  6) =    -21.86186  eV     1   --> A''            
     e(  7 -  7) =    -21.71219  eV     1   --> A''            
     e(  8 -  8) =    -21.67476  eV     1   --> A'             
     e(  9 -  9) =      5.30327  eV     1   --> A'             
     e( 10 - 10) =     10.54708  eV     1   --> A'             
     e( 11 - 11) =     12.26543  eV     1   --> A'             
     e( 12 - 12) =     13.01745  eV     1   --> A''            
     e( 13 - 13) =     13.66504  eV     1   --> A'             
     e( 14 - 14) =     14.68499  eV     1   --> A'             
     e( 15 - 15) =     15.89649  eV     1   --> A'             
     e( 16 - 16) =     17.49202  eV     1   --> A''            
     e( 17 - 17) =     18.03307  eV     1   --> A'             
     e( 18 - 18) =     18.04432  eV     1   --> A''            
     e( 19 - 19) =     18.56029  eV     1   --> A''            
     e( 20 - 20) =     19.20616  eV     1   --> A'             
     e( 21 - 21) =     20.29201  eV     1   --> A'             
     e( 22 - 22) =     21.01656  eV     1   --> A''            
     e( 23 - 23) =     22.29630  eV     1   --> A'             
     e( 24 - 24) =     26.07331  eV     1   --> A'             
     e( 25 - 25) =     28.56066  eV     1   --> A'             
     e( 26 - 26) =     30.49990  eV     1   --> A'             
     e( 27 - 27) =     31.82711  eV     1   --> A'             
     e( 28 - 28) =     32.94181  eV     1   --> A''            
     e( 29 - 29) =     33.66006  eV     1   --> A'             
     e( 30 - 30) =     34.78538  eV     1   --> A''            

 **************************************************************************

 **************************************************************************

                    xk=(  -0.40000,  -0.23094,   0.00000  )

     Band symmetry, C_s (m)     point group:

     e(  1 -  1) =    -48.01327  eV     1   --> A'             
     e(  2 -  2) =    -47.96450  eV     1   --> A'             
     e(  3 -  3) =    -22.10304  eV     1   --> A'             
     e(  4 -  4) =    -21.99219  eV     1   --> A'             
     e(  5 -  5) =    -21.95175  eV     1   --> A'             
     e(  6 -  6) =    -21.86771  eV     1   --> A''            
     e(  7 -  7) =    -21.71493  eV     1   --> A''            
     e(  8 -  8) =    -21.68682  eV     1   --> A'             
     e(  9 -  9) =      5.41561  eV     1   --> A'             
     e( 10 - 10) =     10.42968  eV     1   --> A'             
     e( 11 - 11) =     12.32456  eV     1   --> A'             
     e( 12 - 12) =     12.97752  eV     1   --> A''            
     e( 13 - 13) =     13.58512  eV     1   --> A'             
     e( 14 - 14) =     14.68817  eV     1   --> A'             
     e( 15 - 15) =     15.94941  eV     1   --> A'             
     e( 16 - 16) =     17.67821  eV     1   --> A''            
     e( 17 - 17) =     18.16332  eV     1   --> A''            
     e( 18 - 18) =     18.22402  eV     1   --> A'             
     e( 19 - 19) =     18.59080  eV     1   --> A''            
     e( 20 - 20) =     19.19288  eV     1   --> A'             
     e( 21 - 21) =     20.09558  eV     1   --> A'             
     e( 22 - 22) =     20.81714  eV     1   --> A''            
     e( 23 - 23) =     22.63907  eV     1   --> A'             
     e( 24 - 24) =     25.66242  eV     1   --> A'             
     e( 25 - 25) =     28.41557  eV     1   --> A'             
     e( 26 - 26) =     30.42870  eV     1   --> A'             
     e( 27 - 27) =     31.64603  eV     1   --> A'             
     e( 28 - 28) =     32.93656  eV     1   --> A''            
     e( 29 - 29) =     33.68585  eV     1   --> A'             
     e( 30 - 30) =     34.49331  eV     1   --> A''            

 **************************************************************************

 **************************************************************************

                    xk=(  -0.42500,  -0.24537,   0.00000  )

     Band symmetry, C_s (m)     point group:

     e(  1 -  1) =    -48.00869  eV     1   --> A'             
     e(  2 -  2) =    -47.96479  eV     1   --> A'             
     e(  3 -  3) =    -22.11861  eV     1   --> A'             
     e(  4 -  4) =    -22.00592  eV     1   --> A'             
     e(  5 -  5) =    -21.93609  eV     1   --> A'             
     e(  6 -  6) =    -21.87240  eV     1   --> A''            
     e(  7 -  7) =    -21.71716  eV     1   --> A''            
     e(  8 -  8) =    -21.69789  eV     1   --> A'             
     e(  9 -  9) =      5.50770  eV     1   --> A'             
     e( 10 - 10) =     10.33585  eV     1   --> A'             
     e( 11 - 11) =     12.36538  eV     1   --> A'             
     e( 12 - 12) =     12.94497  eV     1   --> A''            
     e( 13 - 13) =     13.52083  eV     1   --> A'             
     e( 14 - 14) =     14.69584  eV     1   --> A'             
     e( 15 - 15) =     16.00225  eV     1   --> A'             
     e( 16 - 16) =     17.84934  eV     1   --> A''            
     e( 17 - 17) =     18.26056  eV     1   --> A''            
     e( 18 - 18) =     18.42449  eV     1   --> A'             
     e( 19 - 19) =     18.61882  eV     1   --> A''            
     e( 20 - 20) =     19.17932  eV     1   --> A'             
     e( 21 - 21) =     19.88330  eV     1   --> A'             
     e( 22 - 22) =     20.63199  eV     1   --> A''            
     e( 23 - 23) =     22.99276  eV     1   --> A'             
     e( 24 - 24) =     25.27075  eV     1   --> A'             
     e( 25 - 25) =     28.27235  eV     1   --> A'             
     e( 26 - 26) =     30.31624  eV     1   --> A'             
     e( 27 - 27) =     31.55192  eV     1   --> A'             
     e( 28 - 28) =     32.93474  eV     1   --> A''            
     e( 29 - 29) =     33.71155  eV     1   --> A'             
     e( 30 - 30) =     34.25856  eV     1   --> A''            

 **************************************************************************

 **************************************************************************

                    xk=(  -0.45000,  -0.25981,   0.00000  )

     Band symmetry, C_s (m)     point group:

     e(  1 -  1) =    -48.00515  eV     1   --> A'             
     e(  2 -  2) =    -47.96518  eV     1   --> A'             
     e(  3 -  3) =    -22.13003  eV     1   --> A'             
     e(  4 -  4) =    -22.01595  eV     1   --> A'             
     e(  5 -  5) =    -21.92354  eV     1   --> A'             
     e(  6 -  6) =    -21.87581  eV     1   --> A''            
     e(  7 -  7) =    -21.71880  eV     1   --> A''            
     e(  8 -  8) =    -21.70705  eV     1   --> A'             
     e(  9 -  9) =      5.57622  eV     1   --> A'             
     e( 10 - 10) =     10.26739  eV     1   --> A'             
     e( 11 - 11) =     12.39137  eV     1   --> A'             
     e( 12 - 12) =     12.92099  eV     1   --> A''            
     e( 13 - 13) =     13.47390  eV     1   --> A'             
     e( 14 - 14) =     14.70418  eV     1   --> A'             
     e( 15 - 15) =     16.04679  eV     1   --> A'             
     e( 16 - 16) =     17.99023  eV     1   --> A''            
     e( 17 - 17) =     18.33165  eV     1   --> A''            
     e( 18 - 18) =     18.63008  eV     1   --> A'             
     e( 19 - 19) =     18.64511  eV     1   --> A''            
     e( 20 - 20) =     19.17013  eV     1   --> A'             
     e( 21 - 21) =     19.66349  eV     1   --> A'             
     e( 22 - 22) =     20.47626  eV     1   --> A''            
     e( 23 - 23) =     23.34893  eV     1   --> A'             
     e( 24 - 24) =     24.89636  eV     1   --> A'             
     e( 25 - 25) =     28.15059  eV     1   --> A'             
     e( 26 - 26) =     30.20805  eV     1   --> A'             
     e( 27 - 27) =     31.51000  eV     1   --> A'             
     e( 28 - 28) =     32.93510  eV     1   --> A''            
     e( 29 - 29) =     33.73061  eV     1   --> A'             
     e( 30 - 30) =     34.08630  eV     1   --> A''            

 **************************************************************************

 **************************************************************************

                    xk=(  -0.47500,  -0.27424,   0.00000  )

     Band symmetry, C_s (m)     point group:

     e(  1 -  1) =    -48.00288  eV     1   --> A'             
     e(  2 -  2) =    -47.96552  eV     1   --> A'             
     e(  3 -  3) =    -22.13700  eV     1   --> A'             
     e(  4 -  4) =    -22.02206  eV     1   --> A'             
     e(  5 -  5) =    -21.91530  eV     1   --> A'             
     e(  6 -  6) =    -21.87789  eV     1   --> A''            
     e(  7 -  7) =    -21.71981  eV     1   --> A''            
     e(  8 -  8) =    -21.71322  eV     1   --> A'             
     e(  9 -  9) =      5.61848  eV     1   --> A'             
     e( 10 - 10) =     10.22563  eV     1   --> A'             
     e( 11 - 11) =     12.40554  eV     1   --> A'             
     e( 12 - 12) =     12.90626  eV     1   --> A''            
     e( 13 - 13) =     13.44537  eV     1   --> A'             
     e( 14 - 14) =     14.71035  eV     1   --> A'             
     e( 15 - 15) =     16.07632  eV     1   --> A'             
     e( 16 - 16) =     18.08402  eV     1   --> A''            
     e( 17 - 17) =     18.37391  eV     1   --> A''            
     e( 18 - 18) =     18.66665  eV     1   --> A''            
     e( 19 - 19) =     18.82289  eV     1   --> A'             
     e( 20 - 20) =     19.17233  eV     1   --> A'             
     e( 21 - 21) =     19.45232  eV     1   --> A'             
     e( 22 - 22) =     20.36939  eV     1   --> A''            
     e( 23 - 23) =     23.69198  eV     1   --> A'             
     e( 24 - 24) =     24.54619  eV     1   --> A'             
     e( 25 - 25) =     28.06881  eV     1   --> A'             
     e( 26 - 26) =     30.13414  eV     1   --> A'             
     e( 27 - 27) =     31.49349  eV     1   --> A'             
     e( 28 - 28) =     32.93612  eV     1   --> A''            
     e( 29 - 29) =     33.74178  eV     1   --> A'             
     e( 30 - 30) =     33.98084  eV     1   --> A''            

 **************************************************************************

 **************************************************************************

                    xk=(  -0.50000,  -0.28868,   0.00000  )

     point group C_2h (2/m) 
     there are  4 classes
     the character table:

       E     C2    i     s_h  
A_g    1.00  1.00  1.00  1.00
B_g    1.00 -1.00  1.00 -1.00
A_u    1.00  1.00 -1.00 -1.00
B_u    1.00 -1.00 -1.00  1.00

     the symmetry operations in each class and the name of the first element:

     E        1
                                                                 
     C2       2
                                                                 
     i        3
                                                                 
     s_h      4
                                                                 

     Band symmetry, C_2h (2/m)  point group:

     e(  1 -  1) =    -48.00210  eV     1   --> B_u            
     e(  2 -  2) =    -47.96566  eV     1   --> A_g            
     e(  3 -  3) =    -22.13935  eV     1   --> A_g            
     e(  4 -  4) =    -22.02411  eV     1   --> B_u            
     e(  5 -  5) =    -21.91241  eV     1   --> B_u            
     e(  6 -  6) =    -21.87859  eV     1   --> A_u            
     e(  7 -  7) =    -21.72015  eV     1   --> B_g            
     e(  8 -  8) =    -21.71541  eV     1   --> A_g            
     e(  9 -  9) =      5.63275  eV     1   --> A_g            
     e( 10 - 10) =     10.21158  eV     1   --> B_u            
     e( 11 - 11) =     12.41001  eV     1   --> B_u            
     e( 12 - 12) =     12.90122  eV     1   --> A_u            
     e( 13 - 13) =     13.43580  eV     1   --> A_g            
     e( 14 - 14) =     14.71260  eV     1   --> A_g            
     e( 15 - 15) =     16.08663  eV     1   --> B_u            
     e( 16 - 16) =     18.11703  eV     1   --> A_u            
     e( 17 - 17) =     18.38767  eV     1   --> B_g            
     e( 18 - 18) =     18.67551  eV     1   --> B_g            
     e( 19 - 19) =     18.92317  eV     1   --> B_u            
     e( 20 - 20) =     19.19350  eV     1   --> A_g            
     e( 21 - 21) =     19.32514  eV     1   --> B_u            
     e( 22 - 22) =     20.33078  eV     1   --> A_u            
     e( 23 - 23) =     23.90810  eV     1   --> A_g            
     e( 24 - 24) =     24.32838  eV     1   --> B_u            
     e( 25 - 25) =     28.03999  eV     1   --> A_g            
     e( 26 - 26) =     30.10823  eV     1   --> A_g            
     e( 27 - 27) =     31.48923  eV     1   --> B_u            
     e( 28 - 28) =     32.93658  eV     1   --> A_u            
     e( 29 - 29) =     33.74543  eV     1   --> A_g            
     e( 30 - 30) =     33.94527  eV     1   --> B_g            

 **************************************************************************

 **************************************************************************

                    xk=(  -0.49445,  -0.29830,   0.00000  )

     point group C_2  (2)   
     there are  2 classes
     the character table:

       E     C2   
A      1.00  1.00
B      1.00 -1.00

     the symmetry operations in each class and the name of the first element:

     E        1
                                                                 
     C2       2
                                                                 

     Band symmetry, C_2  (2)    point group:

     e(  1 -  1) =    -48.00206  eV     1   --> B              
     e(  2 -  2) =    -47.96567  eV     1   --> A              
     e(  3 -  3) =    -22.13923  eV     1   --> A              
     e(  4 -  4) =    -22.02398  eV     1   --> B              
     e(  5 -  5) =    -21.91227  eV     1   --> B              
     e(  6 -  6) =    -21.87882  eV     1   --> A              
     e(  7 -  7) =    -21.72046  eV     1   --> B              
     e(  8 -  8) =    -21.71551  eV     1   --> A              
     e(  9 -  9) =      5.63319  eV     1   --> A              
     e( 10 - 10) =     10.21327  eV     1   --> B              
     e( 11 - 11) =     12.41090  eV     1   --> B              
     e( 12 - 12) =     12.89651  eV     1   --> A              
     e( 13 - 13) =     13.44007  eV     1   --> A              
     e( 14 - 14) =     14.71212  eV     1   --> A              
     e( 15 - 15) =     16.08334  eV     1   --> B              
     e( 16 - 16) =     18.11735  eV     1   --> A              
     e( 17 - 17) =     18.37241  eV     1   --> B              
     e( 18 - 18) =     18.67432  eV     1   --> B              
     e( 19 - 19) =     18.94433  eV     1   --> B              
     e( 20 - 20) =     19.19337  eV     1   --> A              
     e( 21 - 21) =     19.32487  eV     1   --> B              
     e( 22 - 22) =     20.32781  eV     1   --> A              
     e( 23 - 23) =     23.91113  eV     1   --> A              
     e( 24 - 24) =     24.32947  eV     1   --> B              
     e( 25 - 25) =     28.04058  eV     1   --> A              
     e( 26 - 26) =     30.11157  eV     1   --> A              
     e( 27 - 27) =     31.47846  eV     1   --> B              
     e( 28 - 28) =     32.85622  eV     1   --> A              
     e( 29 - 29) =     33.82922  eV     1   --> A              
     e( 30 - 30) =     33.95108  eV     1   --> B              

 **************************************************************************

 **************************************************************************

                    xk=(  -0.48889,  -0.30792,   0.00000  )

     Band symmetry, C_2  (2)    point group:

     e(  1 -  1) =    -48.00195  eV     1   --> B              
     e(  2 -  2) =    -47.96568  eV     1   --> A              
     e(  3 -  3) =    -22.13887  eV     1   --> A              
     e(  4 -  4) =    -22.02359  eV     1   --> B              
     e(  5 -  5) =    -21.91186  eV     1   --> B              
     e(  6 -  6) =    -21.87949  eV     1   --> A              
     e(  7 -  7) =    -21.72139  eV     1   --> B              
     e(  8 -  8) =    -21.71581  eV     1   --> A              
     e(  9 -  9) =      5.63448  eV     1   --> A              
     e( 10 - 10) =     10.21832  eV     1   --> B              
     e( 11 - 11) =     12.41353  eV     1   --> B              
     e( 12 - 12) =     12.88259  eV     1   --> A              
     e( 13 - 13) =     13.45246  eV     1   --> A              
     e( 14 - 14) =     14.71068  eV     1   --> A              
     e( 15 - 15) =     16.07349  eV     1   --> B              
     e( 16 - 16) =     18.11828  eV     1   --> A              
     e( 17 - 17) =     18.33283  eV     1   --> B              
     e( 18 - 18) =     18.67076  eV     1   --> B              
     e( 19 - 19) =     19.00151  eV     1   --> B              
     e( 20 - 20) =     19.19295  eV     1   --> A              
     e( 21 - 21) =     19.32408  eV     1   --> B              
     e( 22 - 22) =     20.31871  eV     1   --> A              
     e( 23 - 23) =     23.92020  eV     1   --> A              
     e( 24 - 24) =     24.33274  eV     1   --> B              
     e( 25 - 25) =     28.04227  eV     1   --> A              
     e( 26 - 26) =     30.12142  eV     1   --> A              
     e( 27 - 27) =     31.44659  eV     1   --> B              
     e( 28 - 28) =     32.67282  eV     1   --> A              
     e( 29 - 29) =     33.96803  eV     1   --> B              
     e( 30 - 30) =     34.02282  eV     1   --> A              

 **************************************************************************

 **************************************************************************

                    xk=(  -0.48334,  -0.31754,   0.00000  )

     point group C_1 (1)    
     there are  1 classes
     the character table:

       E    
A      1.00

     the symmetry operations in each class and the name of the first element:

     E        1
                                                                 

     Band symmetry, C_1 (1)     point group:

     e(  1 -  1) =    -48.00176  eV     1   --> A              
     e(  2 -  2) =    -47.96572  eV     1   --> A              
     e(  3 -  3) =    -22.13827  eV     1   --> A              
     e(  4 -  4) =    -22.02294  eV     1   --> A              
     e(  5 -  5) =    -21.91118  eV     1   --> A              
     e(  6 -  6) =    -21.88061  eV     1   --> A              
     e(  7 -  7) =    -21.72294  eV     1   --> A              
     e(  8 -  8) =    -21.71631  eV     1   --> A              
     e(  9 -  9) =      5.63663  eV     1   --> A              
     e( 10 - 10) =     10.22670  eV     1   --> A              
     e( 11 - 11) =     12.41790  eV     1   --> A              
     e( 12 - 12) =     12.86048  eV     1   --> A              
     e( 13 - 13) =     13.47199  eV     1   --> A              
     e( 14 - 14) =     14.70831  eV     1   --> A              
     e( 15 - 15) =     16.05715  eV     1   --> A              
     e( 16 - 16) =     18.11981  eV     1   --> A              
     e( 17 - 17) =     18.28040  eV     1   --> A              
     e( 18 - 18) =     18.66490  eV     1   --> A              
     e( 19 - 19) =     19.08288  eV     1   --> A              
     e( 20 - 20) =     19.19226  eV     1   --> A              
     e( 21 - 21) =     19.32299  eV     1   --> A              
     e( 22 - 22) =     20.30371  eV     1   --> A              
     e( 23 - 23) =     23.93519  eV     1   --> A              
     e( 24 - 24) =     24.33818  eV     1   --> A              
     e( 25 - 25) =     28.04490  eV     1   --> A              
     e( 26 - 26) =     30.13750  eV     1   --> A              
     e( 27 - 27) =     31.39497  eV     1   --> A              
     e( 28 - 28) =     32.45160  eV     1   --> A              
     e( 29 - 29) =     33.99495  eV     1   --> A              
     e( 30 - 30) =     34.26136  eV     1   --> A              

 **************************************************************************

 **************************************************************************

                    xk=(  -0.47779,  -0.32717,   0.00000  )

     Band symmetry, C_1 (1)     point group:

     e(  1 -  1) =    -48.00150  eV     1   --> A              
     e(  2 -  2) =    -47.96576  eV     1   --> A              
     e(  3 -  3) =    -22.13744  eV     1   --> A              
     e(  4 -  4) =    -22.02203  eV     1   --> A              
     e(  5 -  5) =    -21.91024  eV     1   --> A              
     e(  6 -  6) =    -21.88217  eV     1   --> A              
     e(  7 -  7) =    -21.72510  eV     1   --> A              
     e(  8 -  8) =    -21.71701  eV     1   --> A              
     e(  9 -  9) =      5.63961  eV     1   --> A              
     e( 10 - 10) =     10.23839  eV     1   --> A              
     e( 11 - 11) =     12.42400  eV     1   --> A              
     e( 12 - 12) =     12.83153  eV     1   --> A              
     e( 13 - 13) =     13.49735  eV     1   --> A              
     e( 14 - 14) =     14.70508  eV     1   --> A              
     e( 15 - 15) =     16.03450  eV     1   --> A              
     e( 16 - 16) =     18.12192  eV     1   --> A              
     e( 17 - 17) =     18.22381  eV     1   --> A              
     e( 18 - 18) =     18.65685  eV     1   --> A              
     e( 19 - 19) =     19.17841  eV     1   --> A              
     e( 20 - 20) =     19.19126  eV     1   --> A              
     e( 21 - 21) =     19.32264  eV     1   --> A              
     e( 22 - 22) =     20.28315  eV     1   --> A              
     e( 23 - 23) =     23.95595  eV     1   --> A              
     e( 24 - 24) =     24.34582  eV     1   --> A              
     e( 25 - 25) =     28.04821  eV     1   --> A              
     e( 26 - 26) =     30.15927  eV     1   --> A              
     e( 27 - 27) =     31.32560  eV     1   --> A              
     e( 28 - 28) =     32.21869  eV     1   --> A              
     e( 29 - 29) =     34.03015  eV     1   --> A              
     e( 30 - 30) =     34.51935  eV     1   --> A              

 **************************************************************************

 **************************************************************************

                    xk=(  -0.47223,  -0.33679,   0.00000  )

     Band symmetry, C_1 (1)     point group:

     e(  1 -  1) =    -48.00117  eV     1   --> A              
     e(  2 -  2) =    -47.96582  eV     1   --> A              
     e(  3 -  3) =    -22.13638  eV     1   --> A              
     e(  4 -  4) =    -22.02087  eV     1   --> A              
     e(  5 -  5) =    -21.90902  eV     1   --> A              
     e(  6 -  6) =    -21.88415  eV     1   --> A              
     e(  7 -  7) =    -21.72785  eV     1   --> A              
     e(  8 -  8) =    -21.71792  eV     1   --> A              
     e(  9 -  9) =      5.64340  eV     1   --> A              
     e( 10 - 10) =     10.25331  eV     1   --> A              
     e( 11 - 11) =     12.43178  eV     1   --> A              
     e( 12 - 12) =     12.79690  eV     1   --> A              
     e( 13 - 13) =     13.52731  eV     1   --> A              
     e( 14 - 14) =     14.70105  eV     1   --> A              
     e( 15 - 15) =     16.00575  eV     1   --> A              
     e( 16 - 16) =     18.12457  eV     1   --> A              
     e( 17 - 17) =     18.16808  eV     1   --> A              
     e( 18 - 18) =     18.64674  eV     1   --> A              
     e( 19 - 19) =     19.18993  eV     1   --> A              
     e( 20 - 20) =     19.27195  eV     1   --> A              
     e( 21 - 21) =     19.33375  eV     1   --> A              
     e( 22 - 22) =     20.25737  eV     1   --> A              
     e( 23 - 23) =     23.98224  eV     1   --> A              
     e( 24 - 24) =     24.35563  eV     1   --> A              
     e( 25 - 25) =     28.05181  eV     1   --> A              
     e( 26 - 26) =     30.18565  eV     1   --> A              
     e( 27 - 27) =     31.24078  eV     1   --> A              
     e( 28 - 28) =     31.98452  eV     1   --> A              
     e( 29 - 29) =     34.07169  eV     1   --> A              
     e( 30 - 30) =     34.78738  eV     1   --> A              

 **************************************************************************

 **************************************************************************

                    xk=(  -0.46668,  -0.34641,   0.00000  )

     Band symmetry, C_1 (1)     point group:

     e(  1 -  1) =    -48.00076  eV     1   --> A              
     e(  2 -  2) =    -47.96590  eV     1   --> A              
     e(  3 -  3) =    -22.13510  eV     1   --> A              
     e(  4 -  4) =    -22.01946  eV     1   --> A              
     e(  5 -  5) =    -21.90754  eV     1   --> A              
     e(  6 -  6) =    -21.88654  eV     1   --> A              
     e(  7 -  7) =    -21.73119  eV     1   --> A              
     e(  8 -  8) =    -21.71903  eV     1   --> A              
     e(  9 -  9) =      5.64798  eV     1   --> A              
     e( 10 - 10) =     10.27143  eV     1   --> A              
     e( 11 - 11) =     12.44116  eV     1   --> A              
     e( 12 - 12) =     12.75762  eV     1   --> A              
     e( 13 - 13) =     13.56082  eV     1   --> A              
     e( 14 - 14) =     14.69634  eV     1   --> A              
     e( 15 - 15) =     15.97120  eV     1   --> A              
     e( 16 - 16) =     18.11595  eV     1   --> A              
     e( 17 - 17) =     18.12770  eV     1   --> A              
     e( 18 - 18) =     18.63474  eV     1   --> A              
     e( 19 - 19) =     19.18823  eV     1   --> A              
     e( 20 - 20) =     19.29952  eV     1   --> A              
     e( 21 - 21) =     19.41706  eV     1   --> A              
     e( 22 - 22) =     20.22682  eV     1   --> A              
     e( 23 - 23) =     24.01381  eV     1   --> A              
     e( 24 - 24) =     24.36763  eV     1   --> A              
     e( 25 - 25) =     28.05526  eV     1   --> A              
     e( 26 - 26) =     30.21465  eV     1   --> A              
     e( 27 - 27) =     31.14292  eV     1   --> A              
     e( 28 - 28) =     31.75520  eV     1   --> A              
     e( 29 - 29) =     34.11763  eV     1   --> A              
     e( 30 - 30) =     35.06135  eV     1   --> A              

 **************************************************************************

 **************************************************************************

                    xk=(  -0.46113,  -0.35603,   0.00000  )

     Band symmetry, C_1 (1)     point group:

     e(  1 -  1) =    -48.00028  eV     1   --> A              
     e(  2 -  2) =    -47.96599  eV     1   --> A              
     e(  3 -  3) =    -22.13359  eV     1   --> A              
     e(  4 -  4) =    -22.01780  eV     1   --> A              
     e(  5 -  5) =    -21.90580  eV     1   --> A              
     e(  6 -  6) =    -21.88931  eV     1   --> A              
     e(  7 -  7) =    -21.73508  eV     1   --> A              
     e(  8 -  8) =    -21.72033  eV     1   --> A              
     e(  9 -  9) =      5.65330  eV     1   --> A              
     e( 10 - 10) =     10.29265  eV     1   --> A              
     e( 11 - 11) =     12.45218  eV     1   --> A              
     e( 12 - 12) =     12.71444  eV     1   --> A              
     e( 13 - 13) =     13.59705  eV     1   --> A              
     e( 14 - 14) =     14.69107  eV     1   --> A              
     e( 15 - 15) =     15.93128  eV     1   --> A              
     e( 16 - 16) =     18.06890  eV     1   --> A              
     e( 17 - 17) =     18.13125  eV     1   --> A              
     e( 18 - 18) =     18.62102  eV     1   --> A              
     e( 19 - 19) =     19.18612  eV     1   --> A              
     e( 20 - 20) =     19.29742  eV     1   --> A              
     e( 21 - 21) =     19.53415  eV     1   --> A              
     e( 22 - 22) =     20.19203  eV     1   --> A              
     e( 23 - 23) =     24.05035  eV     1   --> A              
     e( 24 - 24) =     24.38184  eV     1   --> A              
     e( 25 - 25) =     28.05801  eV     1   --> A              
     e( 26 - 26) =     30.24255  eV     1   --> A              
     e( 27 - 27) =     31.03452  eV     1   --> A              
     e( 28 - 28) =     31.53661  eV     1   --> A              
     e( 29 - 29) =     34.16620  eV     1   --> A              
     e( 30 - 30) =     35.33900  eV     1   --> A              

 **************************************************************************

 **************************************************************************

                    xk=(  -0.45557,  -0.36566,   0.00000  )

     Band symmetry, C_1 (1)     point group:

     e(  1 -  1) =    -47.99973  eV     1   --> A              
     e(  2 -  2) =    -47.96610  eV     1   --> A              
     e(  3 -  3) =    -22.13188  eV     1   --> A              
     e(  4 -  4) =    -22.01591  eV     1   --> A              
     e(  5 -  5) =    -21.90380  eV     1   --> A              
     e(  6 -  6) =    -21.89244  eV     1   --> A              
     e(  7 -  7) =    -21.73952  eV     1   --> A              
     e(  8 -  8) =    -21.72185  eV     1   --> A              
     e(  9 -  9) =      5.65934  eV     1   --> A              
     e( 10 - 10) =     10.31690  eV     1   --> A              
     e( 11 - 11) =     12.46473  eV     1   --> A              
     e( 12 - 12) =     12.66807  eV     1   --> A              
     e( 13 - 13) =     13.63533  eV     1   --> A              
     e( 14 - 14) =     14.68537  eV     1   --> A              
     e( 15 - 15) =     15.88647  eV     1   --> A              
     e( 16 - 16) =     18.02767  eV     1   --> A              
     e( 17 - 17) =     18.13517  eV     1   --> A              
     e( 18 - 18) =     18.60579  eV     1   --> A              
     e( 19 - 19) =     19.18354  eV     1   --> A              
     e( 20 - 20) =     19.29117  eV     1   --> A              
     e( 21 - 21) =     19.65801  eV     1   --> A              
     e( 22 - 22) =     20.15371  eV     1   --> A              
     e( 23 - 23) =     24.09154  eV     1   --> A              
     e( 24 - 24) =     24.39829  eV     1   --> A              
     e( 25 - 25) =     28.05946  eV     1   --> A              
     e( 26 - 26) =     30.26221  eV     1   --> A              
     e( 27 - 27) =     30.91773  eV     1   --> A              
     e( 28 - 28) =     31.33725  eV     1   --> A              
     e( 29 - 29) =     34.21590  eV     1   --> A              
     e( 30 - 30) =     35.39656  eV     1   --> A              

 **************************************************************************

 **************************************************************************

                    xk=(  -0.45002,  -0.37528,   0.00000  )

     Band symmetry, C_1 (1)     point group:

     e(  1 -  1) =    -47.99912  eV     1   --> A              
     e(  2 -  2) =    -47.96622  eV     1   --> A              
     e(  3 -  3) =    -22.12998  eV     1   --> A              
     e(  4 -  4) =    -22.01378  eV     1   --> A              
     e(  5 -  5) =    -21.90154  eV     1   --> A              
     e(  6 -  6) =    -21.89591  eV     1   --> A              
     e(  7 -  7) =    -21.74448  eV     1   --> A              
     e(  8 -  8) =    -21.72356  eV     1   --> A              
     e(  9 -  9) =      5.66605  eV     1   --> A              
     e( 10 - 10) =     10.34405  eV     1   --> A              
     e( 11 - 11) =     12.47874  eV     1   --> A              
     e( 12 - 12) =     12.61890  eV     1   --> A              
     e( 13 - 13) =     13.67514  eV     1   --> A              
     e( 14 - 14) =     14.67941  eV     1   --> A              
     e( 15 - 15) =     15.83735  eV     1   --> A              
     e( 16 - 16) =     17.99258  eV     1   --> A              
     e( 17 - 17) =     18.13939  eV     1   --> A              
     e( 18 - 18) =     18.58925  eV     1   --> A              
     e( 19 - 19) =     19.18040  eV     1   --> A              
     e( 20 - 20) =     19.28280  eV     1   --> A              
     e( 21 - 21) =     19.78541  eV     1   --> A              
     e( 22 - 22) =     20.11246  eV     1   --> A              
     e( 23 - 23) =     24.13705  eV     1   --> A              
     e( 24 - 24) =     24.41698  eV     1   --> A              
     e( 25 - 25) =     28.05891  eV     1   --> A              
     e( 26 - 26) =     30.26053  eV     1   --> A              
     e( 27 - 27) =     30.79451  eV     1   --> A              
     e( 28 - 28) =     31.17119  eV     1   --> A              
     e( 29 - 29) =     34.26551  eV     1   --> A              
     e( 30 - 30) =     35.35762  eV     1   --> A              

 **************************************************************************

 **************************************************************************

                    xk=(  -0.44447,  -0.38490,   0.00000  )

     Band symmetry, C_1 (1)     point group:

     e(  1 -  1) =    -47.99845  eV     1   --> A              
     e(  2 -  2) =    -47.96637  eV     1   --> A              
     e(  3 -  3) =    -22.12788  eV     1   --> A              
     e(  4 -  4) =    -22.01142  eV     1   --> A              
     e(  5 -  5) =    -21.89968  eV     1   --> A              
     e(  6 -  6) =    -21.89904  eV     1   --> A              
     e(  7 -  7) =    -21.74992  eV     1   --> A              
     e(  8 -  8) =    -21.72548  eV     1   --> A              
     e(  9 -  9) =      5.67337  eV     1   --> A              
     e( 10 - 10) =     10.37399  eV     1   --> A              
     e( 11 - 11) =     12.49411  eV     1   --> A              
     e( 12 - 12) =     12.56727  eV     1   --> A              
     e( 13 - 13) =     13.71606  eV     1   --> A              
     e( 14 - 14) =     14.67338  eV     1   --> A              
     e( 15 - 15) =     15.78457  eV     1   --> A              
     e( 16 - 16) =     17.96365  eV     1   --> A              
     e( 17 - 17) =     18.14382  eV     1   --> A              
     e( 18 - 18) =     18.57160  eV     1   --> A              
     e( 19 - 19) =     19.17661  eV     1   --> A              
     e( 20 - 20) =     19.27263  eV     1   --> A              
     e( 21 - 21) =     19.91505  eV     1   --> A              
     e( 22 - 22) =     20.06896  eV     1   --> A              
     e( 23 - 23) =     24.18654  eV     1   --> A              
     e( 24 - 24) =     24.43798  eV     1   --> A              
     e( 25 - 25) =     28.05554  eV     1   --> A              
     e( 26 - 26) =     30.21834  eV     1   --> A              
     e( 27 - 27) =     30.66658  eV     1   --> A              
     e( 28 - 28) =     31.05848  eV     1   --> A              
     e( 29 - 29) =     34.31419  eV     1   --> A              
     e( 30 - 30) =     35.31213  eV     1   --> A              

 **************************************************************************

 **************************************************************************

                    xk=(  -0.43891,  -0.39452,   0.00000  )

     Band symmetry, C_1 (1)     point group:

     e(  1 -  1) =    -47.99771  eV     1   --> A              
     e(  2 -  2) =    -47.96655  eV     1   --> A              
     e(  3 -  3) =    -22.12562  eV     1   --> A              
     e(  4 -  4) =    -22.00884  eV     1   --> A              
     e(  5 -  5) =    -21.90372  eV     1   --> A              
     e(  6 -  6) =    -21.89629  eV     1   --> A              
     e(  7 -  7) =    -21.75581  eV     1   --> A              
     e(  8 -  8) =    -21.72761  eV     1   --> A              
     e(  9 -  9) =      5.68123  eV     1   --> A              
     e( 10 - 10) =     10.40657  eV     1   --> A              
     e( 11 - 11) =     12.51072  eV     1   --> A              
     e( 12 - 12) =     12.51344  eV     1   --> A              
     e( 13 - 13) =     13.75766  eV     1   --> A              
     e( 14 - 14) =     14.66748  eV     1   --> A              
     e( 15 - 15) =     15.72880  eV     1   --> A              
     e( 16 - 16) =     17.94073  eV     1   --> A              
     e( 17 - 17) =     18.14838  eV     1   --> A              
     e( 18 - 18) =     18.55305  eV     1   --> A              
     e( 19 - 19) =     19.17203  eV     1   --> A              
     e( 20 - 20) =     19.26072  eV     1   --> A              
     e( 21 - 21) =     20.02395  eV     1   --> A              
     e( 22 - 22) =     20.04595  eV     1   --> A              
     e( 23 - 23) =     24.23967  eV     1   --> A              
     e( 24 - 24) =     24.46131  eV     1   --> A              
     e( 25 - 25) =     28.04840  eV     1   --> A              
     e( 26 - 26) =     30.12249  eV     1   --> A              
     e( 27 - 27) =     30.53555  eV     1   --> A              
     e( 28 - 28) =     31.01297  eV     1   --> A              
     e( 29 - 29) =     34.36112  eV     1   --> A              
     e( 30 - 30) =     35.25975  eV     1   --> A              

 **************************************************************************

 **************************************************************************

                    xk=(  -0.43336,  -0.40415,   0.00000  )

     Band symmetry, C_1 (1)     point group:

     e(  1 -  1) =    -47.99692  eV     1   --> A              
     e(  2 -  2) =    -47.96674  eV     1   --> A              
     e(  3 -  3) =    -22.12319  eV     1   --> A              
     e(  4 -  4) =    -22.00606  eV     1   --> A              
     e(  5 -  5) =    -21.90798  eV     1   --> A              
     e(  6 -  6) =    -21.89329  eV     1   --> A              
     e(  7 -  7) =    -21.76213  eV     1   --> A              
     e(  8 -  8) =    -21.72994  eV     1   --> A              
     e(  9 -  9) =      5.68958  eV     1   --> A              
     e( 10 - 10) =     10.44173  eV     1   --> A              
     e( 11 - 11) =     12.45764  eV     1   --> A              
     e( 12 - 12) =     12.52841  eV     1   --> A              
     e( 13 - 13) =     13.79959  eV     1   --> A              
     e( 14 - 14) =     14.66195  eV     1   --> A              
     e( 15 - 15) =     15.67076  eV     1   --> A              
     e( 16 - 16) =     17.92357  eV     1   --> A              
     e( 17 - 17) =     18.15301  eV     1   --> A              
     e( 18 - 18) =     18.53379  eV     1   --> A              
     e( 19 - 19) =     19.16651  eV     1   --> A              
     e( 20 - 20) =     19.24712  eV     1   --> A              
     e( 21 - 21) =     19.97817  eV     1   --> A              
     e( 22 - 22) =     20.17731  eV     1   --> A              
     e( 23 - 23) =     24.29612  eV     1   --> A              
     e( 24 - 24) =     24.48708  eV     1   --> A              
     e( 25 - 25) =     28.03631  eV     1   --> A              
     e( 26 - 26) =     29.98106  eV     1   --> A              
     e( 27 - 27) =     30.40278  eV     1   --> A              
     e( 28 - 28) =     31.02759  eV     1   --> A              
     e( 29 - 29) =     34.40588  eV     1   --> A              
     e( 30 - 30) =     35.20055  eV     1   --> A              

 **************************************************************************

 **************************************************************************

                    xk=(  -0.42781,  -0.41377,   0.00000  )

     Band symmetry, C_1 (1)     point group:

     e(  1 -  1) =    -47.99607  eV     1   --> A              
     e(  2 -  2) =    -47.96697  eV     1   --> A              
     e(  3 -  3) =    -22.12063  eV     1   --> A              
     e(  4 -  4) =    -22.00308  eV     1   --> A              
     e(  5 -  5) =    -21.91243  eV     1   --> A              
     e(  6 -  6) =    -21.89007  eV     1   --> A              
     e(  7 -  7) =    -21.76884  eV     1   --> A              
     e(  8 -  8) =    -21.73247  eV     1   --> A              
     e(  9 -  9) =      5.69834  eV     1   --> A              
     e( 10 - 10) =     10.47924  eV     1   --> A              
     e( 11 - 11) =     12.40014  eV     1   --> A              
     e( 12 - 12) =     12.54702  eV     1   --> A              
     e( 13 - 13) =     13.84145  eV     1   --> A              
     e( 14 - 14) =     14.65704  eV     1   --> A              
     e( 15 - 15) =     15.61116  eV     1   --> A              
     e( 16 - 16) =     17.91184  eV     1   --> A              
     e( 17 - 17) =     18.15763  eV     1   --> A              
     e( 18 - 18) =     18.51401  eV     1   --> A              
     e( 19 - 19) =     19.15989  eV     1   --> A              
     e( 20 - 20) =     19.23182  eV     1   --> A              
     e( 21 - 21) =     19.93246  eV     1   --> A              
     e( 22 - 22) =     20.30832  eV     1   --> A              
     e( 23 - 23) =     24.35557  eV     1   --> A              
     e( 24 - 24) =     24.51536  eV     1   --> A              
     e( 25 - 25) =     28.01778  eV     1   --> A              
     e( 26 - 26) =     29.81388  eV     1   --> A              
     e( 27 - 27) =     30.26949  eV     1   --> A              
     e( 28 - 28) =     31.08378  eV     1   --> A              
     e( 29 - 29) =     34.44815  eV     1   --> A              
     e( 30 - 30) =     35.13425  eV     1   --> A              

 **************************************************************************

 **************************************************************************

                    xk=(  -0.42225,  -0.42339,   0.00000  )

     Band symmetry, C_1 (1)     point group:

     e(  1 -  1) =    -47.99518  eV     1   --> A              
     e(  2 -  2) =    -47.96722  eV     1   --> A              
     e(  3 -  3) =    -22.11795  eV     1   --> A              
     e(  4 -  4) =    -21.99992  eV     1   --> A              
     e(  5 -  5) =    -21.91702  eV     1   --> A              
     e(  6 -  6) =    -21.88661  eV     1   --> A              
     e(  7 -  7) =    -21.77588  eV     1   --> A              
     e(  8 -  8) =    -21.73521  eV     1   --> A              
     e(  9 -  9) =      5.70746  eV     1   --> A              
     e( 10 - 10) =     10.51903  eV     1   --> A              
     e( 11 - 11) =     12.34103  eV     1   --> A              
     e( 12 - 12) =     12.56651  eV     1   --> A              
     e( 13 - 13) =     13.88285  eV     1   --> A              
     e( 14 - 14) =     14.65303  eV     1   --> A              
     e( 15 - 15) =     15.55073  eV     1   --> A              
     e( 16 - 16) =     17.90519  eV     1   --> A              
     e( 17 - 17) =     18.16217  eV     1   --> A              
     e( 18 - 18) =     18.49389  eV     1   --> A              
     e( 19 - 19) =     19.15195  eV     1   --> A              
     e( 20 - 20) =     19.21488  eV     1   --> A              
     e( 21 - 21) =     19.88754  eV     1   --> A              
     e( 22 - 22) =     20.43830  eV     1   --> A              
     e( 23 - 23) =     24.41774  eV     1   --> A              
     e( 24 - 24) =     24.54635  eV     1   --> A              
     e( 25 - 25) =     27.99087  eV     1   --> A              
     e( 26 - 26) =     29.63737  eV     1   --> A              
     e( 27 - 27) =     30.13693  eV     1   --> A              
[...]
     e(  5 -  5) =    -21.90510  eV     1   --> A              
     e(  6 -  6) =    -21.89027  eV     1   --> A              
     e(  7 -  7) =    -21.82612  eV     1   --> A              
     e(  8 -  8) =    -21.73185  eV     1   --> A              
     e(  9 -  9) =      5.67239  eV     1   --> A              
     e( 10 - 10) =     10.86718  eV     1   --> A              
     e( 11 - 11) =     11.99951  eV     1   --> A              
     e( 12 - 12) =     12.69992  eV     1   --> A              
     e( 13 - 13) =     14.15852  eV     1   --> A              
     e( 14 - 14) =     14.60176  eV     1   --> A              
     e( 15 - 15) =     15.09755  eV     1   --> A              
     e( 16 - 16) =     17.88639  eV     1   --> A              
     e( 17 - 17) =     17.97740  eV     1   --> A              
     e( 18 - 18) =     18.26348  eV     1   --> A              
     e( 19 - 19) =     18.92652  eV     1   --> A              
     e( 20 - 20) =     19.53365  eV     1   --> A              
     e( 21 - 21) =     19.73250  eV     1   --> A              
     e( 22 - 22) =     21.18384  eV     1   --> A              
     e( 23 - 23) =     23.40481  eV     1   --> A              
     e( 24 - 24) =     26.65668  eV     1   --> A              
     e( 25 - 25) =     27.26252  eV     1   --> A              
     e( 26 - 26) =     28.93271  eV     1   --> A              
     e( 27 - 27) =     29.50781  eV     1   --> A              
     e( 28 - 28) =     32.20656  eV     1   --> A              
     e( 29 - 29) =     33.89501  eV     1   --> A              
     e( 30 - 30) =     34.69087  eV     1   --> A              

 **************************************************************************

 **************************************************************************

                    xk=(  -0.23338,  -0.40415,   0.00000  )

     Band symmetry, C_1 (1)     point group:

     e(  1 -  1) =    -48.00919  eV     1   --> A              
     e(  2 -  2) =    -47.96465  eV     1   --> A              
     e(  3 -  3) =    -22.05302  eV     1   --> A              
     e(  4 -  4) =    -21.99982  eV     1   --> A              
     e(  5 -  5) =    -21.93813  eV     1   --> A              
     e(  6 -  6) =    -21.87017  eV     1   --> A              
     e(  7 -  7) =    -21.79186  eV     1   --> A              
     e(  8 -  8) =    -21.69561  eV     1   --> A              
     e(  9 -  9) =      5.46131  eV     1   --> A              
     e( 10 - 10) =     10.83922  eV     1   --> A              
     e( 11 - 11) =     12.23857  eV     1   --> A              
     e( 12 - 12) =     12.66571  eV     1   --> A              
     e( 13 - 13) =     14.13475  eV     1   --> A              
     e( 14 - 14) =     14.46418  eV     1   --> A              
     e( 15 - 15) =     15.25708  eV     1   --> A              
     e( 16 - 16) =     17.65930  eV     1   --> A              
     e( 17 - 17) =     17.71066  eV     1   --> A              
     e( 18 - 18) =     18.25316  eV     1   --> A              
     e( 19 - 19) =     18.69370  eV     1   --> A              
     e( 20 - 20) =     19.95842  eV     1   --> A              
     e( 21 - 21) =     20.14963  eV     1   --> A              
     e( 22 - 22) =     20.84255  eV     1   --> A              
     e( 23 - 23) =     22.46217  eV     1   --> A              
     e( 24 - 24) =     27.32690  eV     1   --> A              
     e( 25 - 25) =     27.93291  eV     1   --> A              
     e( 26 - 26) =     29.39540  eV     1   --> A              
     e( 27 - 27) =     30.13312  eV     1   --> A              
     e( 28 - 28) =     32.00560  eV     1   --> A              
     e( 29 - 29) =     33.73010  eV     1   --> A              
     e( 30 - 30) =     34.70126  eV     1   --> A              

 **************************************************************************

 **************************************************************************

                    xk=(  -0.20004,  -0.34641,   0.00000  )

     Band symmetry, C_1 (1)     point group:

     e(  1 -  1) =    -48.02431  eV     1   --> A              
     e(  2 -  2) =    -47.96463  eV     1   --> A              
     e(  3 -  3) =    -22.01230  eV     1   --> A              
     e(  4 -  4) =    -21.98368  eV     1   --> A              
     e(  5 -  5) =    -21.98127  eV     1   --> A              
     e(  6 -  6) =    -21.83612  eV     1   --> A              
     e(  7 -  7) =    -21.75965  eV     1   --> A              
     e(  8 -  8) =    -21.66250  eV     1   --> A              
     e(  9 -  9) =      5.16577  eV     1   --> A              
     e( 10 - 10) =     10.97176  eV     1   --> A              
     e( 11 - 11) =     12.19873  eV     1   --> A              
     e( 12 - 12) =     12.79621  eV     1   --> A              
     e( 13 - 13) =     14.14537  eV     1   --> A              
     e( 14 - 14) =     14.43755  eV     1   --> A              
     e( 15 - 15) =     15.45114  eV     1   --> A              
     e( 16 - 16) =     17.32700  eV     1   --> A              
     e( 17 - 17) =     17.41607  eV     1   --> A              
     e( 18 - 18) =     18.23847  eV     1   --> A              
     e( 19 - 19) =     18.30216  eV     1   --> A              
     e( 20 - 20) =     20.08639  eV     1   --> A              
     e( 21 - 21) =     20.54332  eV     1   --> A              
     e( 22 - 22) =     20.86312  eV     1   --> A              
     e( 23 - 23) =     21.74792  eV     1   --> A              
     e( 24 - 24) =     28.16818  eV     1   --> A              
     e( 25 - 25) =     28.33084  eV     1   --> A              
     e( 26 - 26) =     29.93690  eV     1   --> A              
     e( 27 - 27) =     30.48524  eV     1   --> A              
     e( 28 - 28) =     32.17760  eV     1   --> A              
     e( 29 - 29) =     33.82879  eV     1   --> A              
     e( 30 - 30) =     34.92562  eV     1   --> A              

 **************************************************************************

 **************************************************************************

                    xk=(  -0.16670,  -0.28868,   0.00000  )

     Band symmetry, C_1 (1)     point group:

     e(  1 -  1) =    -48.04038  eV     1   --> A              
     e(  2 -  2) =    -47.96657  eV     1   --> A              
     e(  3 -  3) =    -22.03911  eV     1   --> A              
     e(  4 -  4) =    -21.94560  eV     1   --> A              
     e(  5 -  5) =    -21.94532  eV     1   --> A              
     e(  6 -  6) =    -21.80483  eV     1   --> A              
     e(  7 -  7) =    -21.73143  eV     1   --> A              
     e(  8 -  8) =    -21.63373  eV     1   --> A              
     e(  9 -  9) =      4.81799  eV     1   --> A              
     e( 10 - 10) =     11.25274  eV     1   --> A              
     e( 11 - 11) =     11.91582  eV     1   --> A              
     e( 12 - 12) =     13.01234  eV     1   --> A              
     e( 13 - 13) =     14.19686  eV     1   --> A              
     e( 14 - 14) =     14.60843  eV     1   --> A              
     e( 15 - 15) =     15.66673  eV     1   --> A              
     e( 16 - 16) =     16.91195  eV     1   --> A              
     e( 17 - 17) =     17.17073  eV     1   --> A              
     e( 18 - 18) =     17.83663  eV     1   --> A              
     e( 19 - 19) =     18.20105  eV     1   --> A              
     e( 20 - 20) =     19.84069  eV     1   --> A              
     e( 21 - 21) =     20.36448  eV     1   --> A              
     e( 22 - 22) =     21.46416  eV     1   --> A              
     e( 23 - 23) =     21.48984  eV     1   --> A              
     e( 24 - 24) =     28.48797  eV     1   --> A              
     e( 25 - 25) =     29.18651  eV     1   --> A              
     e( 26 - 26) =     30.16778  eV     1   --> A              
     e( 27 - 27) =     30.41601  eV     1   --> A              
     e( 28 - 28) =     32.73271  eV     1   --> A              
     e( 29 - 29) =     34.65972  eV     1   --> A              
     e( 30 - 30) =     35.49327  eV     1   --> A              

 **************************************************************************

 **************************************************************************

                    xk=(  -0.13336,  -0.23094,   0.00000  )

     Band symmetry, C_1 (1)     point group:

     e(  1 -  1) =    -48.05620  eV     1   --> A              
     e(  2 -  2) =    -47.96987  eV     1   --> A              
     e(  3 -  3) =    -22.08330  eV     1   --> A              
     e(  4 -  4) =    -21.89778  eV     1   --> A              
     e(  5 -  5) =    -21.87934  eV     1   --> A              
     e(  6 -  6) =    -21.77656  eV     1   --> A              
     e(  7 -  7) =    -21.70838  eV     1   --> A              
     e(  8 -  8) =    -21.61009  eV     1   --> A              
     e(  9 -  9) =      4.46013  eV     1   --> A              
     e( 10 - 10) =     11.53593  eV     1   --> A              
     e( 11 - 11) =     11.65456  eV     1   --> A              
     e( 12 - 12) =     13.20296  eV     1   --> A              
     e( 13 - 13) =     14.27182  eV     1   --> A              
     e( 14 - 14) =     14.94974  eV     1   --> A              
     e( 15 - 15) =     15.88991  eV     1   --> A              
     e( 16 - 16) =     16.58023  eV     1   --> A              
     e( 17 - 17) =     16.93150  eV     1   --> A              
     e( 18 - 18) =     17.37213  eV     1   --> A              
     e( 19 - 19) =     18.12625  eV     1   --> A              
     e( 20 - 20) =     19.26462  eV     1   --> A              
     e( 21 - 21) =     20.15917  eV     1   --> A              
     e( 22 - 22) =     21.64279  eV     1   --> A              
     e( 23 - 23) =     21.95603  eV     1   --> A              
     e( 24 - 24) =     28.47285  eV     1   --> A              
     e( 25 - 25) =     29.39347  eV     1   --> A              
     e( 26 - 26) =     30.37078  eV     1   --> A              
     e( 27 - 27) =     30.89893  eV     1   --> A              
     e( 28 - 28) =     33.54222  eV     1   --> A              
     e( 29 - 29) =     35.97556  eV     1   --> A              
     e( 30 - 30) =     36.36378  eV     1   --> A              

 **************************************************************************

 **************************************************************************

                    xk=(  -0.10002,  -0.17321,   0.00000  )

     Band symmetry, C_1 (1)     point group:

     e(  1 -  1) =    -48.07038  eV     1   --> A              
     e(  2 -  2) =    -47.97372  eV     1   --> A              
     e(  3 -  3) =    -22.12149  eV     1   --> A              
     e(  4 -  4) =    -21.84654  eV     1   --> A              
     e(  5 -  5) =    -21.81802  eV     1   --> A              
     e(  6 -  6) =    -21.74876  eV     1   --> A              
     e(  7 -  7) =    -21.69121  eV     1   --> A              
     e(  8 -  8) =    -21.59192  eV     1   --> A              
     e(  9 -  9) =      4.13376  eV     1   --> A              
     e( 10 - 10) =     11.15348  eV     1   --> A              
     e( 11 - 11) =     12.14106  eV     1   --> A              
     e( 12 - 12) =     13.33168  eV     1   --> A              
     e( 13 - 13) =     14.33215  eV     1   --> A              
     e( 14 - 14) =     15.38239  eV     1   --> A              
     e( 15 - 15) =     16.10931  eV     1   --> A              
     e( 16 - 16) =     16.41818  eV     1   --> A              
     e( 17 - 17) =     16.70370  eV     1   --> A              
     e( 18 - 18) =     16.96752  eV     1   --> A              
     e( 19 - 19) =     18.00569  eV     1   --> A              
     e( 20 - 20) =     18.63616  eV     1   --> A              
     e( 21 - 21) =     19.89958  eV     1   --> A              
     e( 22 - 22) =     21.94399  eV     1   --> A              
     e( 23 - 23) =     22.29590  eV     1   --> A              
     e( 24 - 24) =     28.35778  eV     1   --> A              
     e( 25 - 25) =     28.51884  eV     1   --> A              
     e( 26 - 26) =     31.50651  eV     1   --> A              
     e( 27 - 27) =     31.63740  eV     1   --> A              
     e( 28 - 28) =     34.41045  eV     1   --> A              
     e( 29 - 29) =     35.99480  eV     1   --> A              
     e( 30 - 30) =     37.21100  eV     1   --> A              

 **************************************************************************

 **************************************************************************

                    xk=(  -0.06668,  -0.11547,   0.00000  )

     Band symmetry, C_1 (1)     point group:

     e(  1 -  1) =    -48.08162  eV     1   --> A              
     e(  2 -  2) =    -47.97725  eV     1   --> A              
     e(  3 -  3) =    -22.15080  eV     1   --> A              
     e(  4 -  4) =    -21.80024  eV     1   --> A              
     e(  5 -  5) =    -21.77773  eV     1   --> A              
     e(  6 -  6) =    -21.71600  eV     1   --> A              
     e(  7 -  7) =    -21.68028  eV     1   --> A              
     e(  8 -  8) =    -21.57925  eV     1   --> A              
     e(  9 -  9) =      3.87404  eV     1   --> A              
     e( 10 - 10) =     10.83551  eV     1   --> A              
     e( 11 - 11) =     12.66444  eV     1   --> A              
     e( 12 - 12) =     13.38647  eV     1   --> A              
     e( 13 - 13) =     14.32919  eV     1   --> A              
     e( 14 - 14) =     15.82729  eV     1   --> A              
     e( 15 - 15) =     16.29742  eV     1   --> A              
     e( 16 - 16) =     16.44114  eV     1   --> A              
     e( 17 - 17) =     16.50162  eV     1   --> A              
     e( 18 - 18) =     16.66922  eV     1   --> A              
     e( 19 - 19) =     17.84203  eV     1   --> A              
     e( 20 - 20) =     18.09346  eV     1   --> A              
     e( 21 - 21) =     19.59598  eV     1   --> A              
     e( 22 - 22) =     22.26893  eV     1   --> A              
     e( 23 - 23) =     22.49935  eV     1   --> A              
     e( 24 - 24) =     27.72161  eV     1   --> A              
     e( 25 - 25) =     28.21830  eV     1   --> A              
     e( 26 - 26) =     32.26116  eV     1   --> A              
     e( 27 - 27) =     32.85537  eV     1   --> A              
     e( 28 - 28) =     34.93554  eV     1   --> A              
     e( 29 - 29) =     35.53019  eV     1   --> A              
     e( 30 - 30) =     37.67619  eV     1   --> A              

 **************************************************************************

 **************************************************************************

                    xk=(  -0.03334,  -0.05774,   0.00000  )

     Band symmetry, C_1 (1)     point group:

     e(  1 -  1) =    -48.08885  eV     1   --> A              
     e(  2 -  2) =    -47.97971  eV     1   --> A              
     e(  3 -  3) =    -22.16923  eV     1   --> A              
     e(  4 -  4) =    -21.76723  eV     1   --> A              
     e(  5 -  5) =    -21.75992  eV     1   --> A              
     e(  6 -  6) =    -21.68585  eV     1   --> A              
     e(  7 -  7) =    -21.67519  eV     1   --> A              
     e(  8 -  8) =    -21.57187  eV     1   --> A              
     e(  9 -  9) =      3.70732  eV     1   --> A              
     e( 10 - 10) =     10.62714  eV     1   --> A              
     e( 11 - 11) =     13.14610  eV     1   --> A              
     e( 12 - 12) =     13.39273  eV     1   --> A              
     e( 13 - 13) =     14.23047  eV     1   --> A              
     e( 14 - 14) =     16.19176  eV     1   --> A              
     e( 15 - 15) =     16.29465  eV     1   --> A              
     e( 16 - 16) =     16.38660  eV     1   --> A              
     e( 17 - 17) =     16.56899  eV     1   --> A              
     e( 18 - 18) =     16.59775  eV     1   --> A              
     e( 19 - 19) =     17.66593  eV     1   --> A              
     e( 20 - 20) =     17.71678  eV     1   --> A              
     e( 21 - 21) =     19.32263  eV     1   --> A              
     e( 22 - 22) =     22.52935  eV     1   --> A              
     e( 23 - 23) =     22.60171  eV     1   --> A              
     e( 24 - 24) =     27.15252  eV     1   --> A              
     e( 25 - 25) =     28.11328  eV     1   --> A              
     e( 26 - 26) =     33.09354  eV     1   --> A              
     e( 27 - 27) =     33.58494  eV     1   --> A              
     e( 28 - 28) =     34.72761  eV     1   --> A              
     e( 29 - 29) =     35.80949  eV     1   --> A              
     e( 30 - 30) =     37.88378  eV     1   --> A              

 **************************************************************************

 **************************************************************************

                    xk=(   0.00000,   0.00000,   0.00000  )

     point group D_3d (-3m) 
     there are  6 classes
     the character table:

       E     2C3   3C2'  i     2S6   3s_d 
A_1g   1.00  1.00  1.00  1.00  1.00  1.00
A_2g   1.00  1.00 -1.00  1.00  1.00 -1.00
E_g    2.00 -1.00  0.00  2.00 -1.00  0.00
A_1u   1.00  1.00  1.00 -1.00 -1.00 -1.00
A_2u   1.00  1.00 -1.00 -1.00 -1.00  1.00
E_u    2.00 -1.00  0.00 -2.00  1.00  0.00

     the symmetry operations in each class and the name of the first element:

     E        1
                                                                 
     2C3      3    4
                                                                 
     3C2'     2    5    6
                                                                 
     i        7
                                                                 
     2S6      9   10
                                                                 
     3s_d     8   11   12
                                                                 

     Band symmetry, D_3d (-3m)  point group:

     e(  1 -  1) =    -48.09134  eV     1   --> A_1g L_1       
     e(  2 -  2) =    -47.98060  eV     1   --> A_2u L_2'      
     e(  3 -  3) =    -22.17552  eV     1   --> A_1g L_1       
     e(  4 -  5) =    -21.75500  eV     2   --> E_g  L_3       
     e(  6 -  7) =    -21.67405  eV     2   --> E_u  L_3'      
     e(  8 -  8) =    -21.56946  eV     1   --> A_2u L_2'      
     e(  9 -  9) =      3.64989  eV     1   --> A_1g L_1       
     e( 10 - 10) =     10.55477  eV     1   --> A_2u L_2'      
     e( 11 - 12) =     13.38915  eV     2   --> E_u  L_3'      
     e( 13 - 13) =     14.12987  eV     1   --> A_1g L_1       
     e( 14 - 14) =     16.23076  eV     1   --> A_1g L_1       
     e( 15 - 16) =     16.34235  eV     2   --> E_g  L_3       
     e( 17 - 18) =     16.64752  eV     2   --> E_g  L_3       
     e( 19 - 20) =     17.57575  eV     2   --> E_u  L_3'      
     e( 21 - 21) =     19.20616  eV     1   --> A_2u L_2'      
     e( 22 - 23) =     22.63213  eV     2   --> E_u  L_3'      
     e( 24 - 24) =     26.94243  eV     1   --> A_1g L_1       
     e( 25 - 25) =     28.07504  eV     1   --> A_2u L_2'      
     e( 26 - 27) =     33.70945  eV     2   --> E_g  L_3       
     e( 28 - 28) =     34.26684  eV     1   --> A_2u L_2'      
     e( 29 - 29) =     36.52499  eV     1   --> A_1g L_1       
     e( 30 - 30) =     37.82955  eV     1   -->   ?

 **************************************************************************

     BANDS        :     16.28s CPU     22.14s WALL


   This run was terminated on:  22:48:51  31May2024            

=------------------------------------------------------------------------------=
   JOB DONE.
=------------------------------------------------------------------------------=
