
     Program PWSCF v.6.7MaX starts on 31May2024 at 22:33:27 

     This program is part of the open-source Quantum ESPRESSO suite
     for quantum simulation of materials; please cite
         "P. Giannozzi et al., J. Phys.:Condens. Matter 21 395502 (2009);
         "P. Giannozzi et al., J. Phys.:Condens. Matter 29 465901 (2017);
          URL http://www.quantum-espresso.org", 
     in publications or presentations arising from this work. More details at
     http://www.quantum-espresso.org/quote

     Parallel version (MPI), running on     1 processors

     MPI processes distributed on     1 nodes
     Waiting for input...
     Reading input from standard input
Warning: card &CELL ignored
Warning: card CELL_DOFREE='IBRAV' ignored
Warning: card / ignored

     Current dimensions of program PWSCF are:
     Max number of different atomic species (ntypx) = 10
     Max number of k-points (npk) =  40000
     Max angular momentum in pseudopotentials (lmaxx) =  3
     file C.pbe-n-kjpaw_psl.1.0.0.UPF: wavefunction(s)  2S 2P renormalized

     Subspace diagonalization in iterative solution of the eigenvalue problem:
     a serial algorithm will be used

     Message from routine setup:
     using ibrav=0 with symmetry is DISCOURAGED, use correct ibrav instead

     G-vector sticks info
     --------------------
     sticks:   dense  smooth     PW     G-vecs:    dense   smooth      PW
     Sum         649     313    109                21181     7415    1339



     bravais-lattice index     =            0
     lattice parameter (alat)  =       5.4472  a.u.
     unit-cell volume          =     218.5677 (a.u.)^3
     number of atoms/cell      =            3
     number of atomic types    =            2
     number of electrons       =        30.00
     number of Kohn-Sham states=           30
     kinetic-energy cutoff     =      40.0000  Ry
     charge density cutoff     =     320.0000  Ry
     scf convergence threshold =      6.0E-10
     mixing beta               =       0.4000
     number of iterations used =            8  plain     mixing
     Exchange-correlation=  SLA  PW   PBX  PBC
                           (   1   4   3   4   0   0   0)

     celldm(1)=   5.447159  celldm(2)=   0.000000  celldm(3)=   0.000000
     celldm(4)=   0.000000  celldm(5)=   0.000000  celldm(6)=   0.000000

     crystal axes: (cart. coord. in units of alat)
               a(1) = (  -0.500000  -0.866025  -0.000000 )  
               a(2) = (  -0.500000   0.866025   0.000000 )  
               a(3) = (   0.000000   0.000000  -1.561512 )  

     reciprocal axes: (cart. coord. in units 2 pi/alat)
               b(1) = ( -1.000000 -0.577350 -0.000000 )  
               b(2) = ( -1.000000  0.577350  0.000000 )  
               b(3) = (  0.000000  0.000000 -0.640405 )  


     PseudoPot. # 1 for C  read from file:
     /usr/share/espresso/pseudo/C.pbe-n-kjpaw_psl.1.0.0.UPF
     MD5 check sum: 5d2aebdfa2cae82b50a7e79e9516da0f
     Pseudo is Projector augmented-wave + core cor, Zval =  4.0
     Generated using "atomic" code by A. Dal Corso  v.5.1
     Shape of augmentation charge: PSQ
     Using radial grid of 1073 points,  4 beta functions with: 
                l(1) =   0
                l(2) =   0
                l(3) =   1
                l(4) =   1
     Q(r) pseudized with 0 coefficients 


     PseudoPot. # 2 for V  read from file:
     /usr/share/espresso/pseudo/v_pbe_v1.4.uspp.F.UPF
     MD5 check sum: 22b79981416ebb76fdaf5b1b8640f6fb
     Pseudo is Ultrasoft + core correction, Zval = 13.0
     Generated by new atomic code, or converted to UPF format
     Using radial grid of  853 points,  6 beta functions with: 
                l(1) =   0
                l(2) =   0
                l(3) =   1
                l(4) =   1
                l(5) =   2
                l(6) =   2
     Q(r) pseudized with  8 coefficients,  rinner =    1.100   1.100   1.100
                                                       1.100   1.100

     atomic species   valence    mass     pseudopotential
        C              4.00    12.01070     C ( 1.00)
        V             13.00    50.94150     V ( 1.00)

     12 Sym. Ops., with inversion, found


                                    s                        frac. trans.

      isym =  1     identity                                     

 cryst.   s( 1) = (     1          0          0      )
                  (     0          1          0      )
                  (     0          0          1      )

 cart.    s( 1) = (  1.0000000  0.0000000  0.0000000 )
                  (  0.0000000  1.0000000  0.0000000 )
                  (  0.0000000  0.0000000  1.0000000 )


      isym =  2     180 deg rotation - cart. axis [1,0,0]        

 cryst.   s( 2) = (     0          1          0      )
                  (     1          0          0      )
                  (     0          0         -1      )

 cart.    s( 2) = (  1.0000000  0.0000000  0.0000000 )
                  (  0.0000000 -1.0000000  0.0000000 )
                  (  0.0000000  0.0000000 -1.0000000 )


      isym =  3     120 deg rotation - cryst. axis [0,0,1]       

 cryst.   s( 3) = (    -1         -1          0      )
                  (     1          0          0      )
                  (     0          0          1      )

 cart.    s( 3) = ( -0.5000000 -0.8660254  0.0000000 )
                  (  0.8660254 -0.5000000  0.0000000 )
                  (  0.0000000  0.0000000  1.0000000 )


      isym =  4     120 deg rotation - cryst. axis [0,0,-1]      

 cryst.   s( 4) = (     0          1          0      )
                  (    -1         -1          0      )
                  (     0          0          1      )

 cart.    s( 4) = ( -0.5000000  0.8660254  0.0000000 )
                  ( -0.8660254 -0.5000000  0.0000000 )
                  (  0.0000000  0.0000000  1.0000000 )


      isym =  5     180 deg rotation - cryst. axis [0,1,0]       

 cryst.   s( 5) = (    -1         -1          0      )
                  (     0          1          0      )
                  (     0          0         -1      )

 cart.    s( 5) = ( -0.5000000 -0.8660254  0.0000000 )
                  ( -0.8660254  0.5000000  0.0000000 )
                  (  0.0000000  0.0000000 -1.0000000 )


      isym =  6     180 deg rotation - cryst. axis [1,1,0]       

 cryst.   s( 6) = (     1          0          0      )
                  (    -1         -1          0      )
                  (     0          0         -1      )

 cart.    s( 6) = ( -0.5000000  0.8660254  0.0000000 )
                  (  0.8660254  0.5000000  0.0000000 )
                  (  0.0000000  0.0000000 -1.0000000 )


      isym =  7     inversion                                    

 cryst.   s( 7) = (    -1          0          0      )
                  (     0         -1          0      )
                  (     0          0         -1      )

 cart.    s( 7) = ( -1.0000000  0.0000000  0.0000000 )
                  (  0.0000000 -1.0000000  0.0000000 )
                  (  0.0000000  0.0000000 -1.0000000 )


      isym =  8     inv. 180 deg rotation - cart. axis [1,0,0]   

 cryst.   s( 8) = (     0         -1          0      )
                  (    -1          0          0      )
                  (     0          0          1      )

 cart.    s( 8) = ( -1.0000000  0.0000000  0.0000000 )
                  (  0.0000000  1.0000000  0.0000000 )
                  (  0.0000000  0.0000000  1.0000000 )


      isym =  9     inv. 120 deg rotation - cryst. axis [0,0,1]  

 cryst.   s( 9) = (     1          1          0      )
                  (    -1          0          0      )
                  (     0          0         -1      )

 cart.    s( 9) = (  0.5000000  0.8660254  0.0000000 )
                  ( -0.8660254  0.5000000  0.0000000 )
                  (  0.0000000  0.0000000 -1.0000000 )


      isym = 10     inv. 120 deg rotation - cryst. axis [0,0,-1] 

 cryst.   s(10) = (     0         -1          0      )
                  (     1          1          0      )
                  (     0          0         -1      )

 cart.    s(10) = (  0.5000000 -0.8660254  0.0000000 )
                  (  0.8660254  0.5000000  0.0000000 )
                  (  0.0000000  0.0000000 -1.0000000 )


      isym = 11     inv. 180 deg rotation - cryst. axis [0,1,0]  

 cryst.   s(11) = (     1          1          0      )
                  (     0         -1          0      )
                  (     0          0          1      )

 cart.    s(11) = (  0.5000000  0.8660254  0.0000000 )
                  (  0.8660254 -0.5000000  0.0000000 )
                  (  0.0000000  0.0000000  1.0000000 )


      isym = 12     inv. 180 deg rotation - cryst. axis [1,1,0]  

 cryst.   s(12) = (    -1          0          0      )
                  (     1          1          0      )
                  (     0          0          1      )

 cart.    s(12) = (  0.5000000 -0.8660254  0.0000000 )
                  ( -0.8660254 -0.5000000  0.0000000 )
                  (  0.0000000  0.0000000  1.0000000 )


   Cartesian axes

     site n.     atom                  positions (alat units)
         1           V   tau(   1) = (  -0.5000000   0.2886751  -0.3984485  )
         2           V   tau(   2) = (  -0.5000000  -0.2886751  -1.1630630  )
         3           C   tau(   3) = (   0.0000000   0.0000000   0.0000000  )

   Crystallographic axes

     site n.     atom                  positions (cryst. coord.)
         1           V   tau(   1) = (  0.3333333  0.6666667  0.2551685  )
         2           V   tau(   2) = (  0.6666667  0.3333333  0.7448315  )
         3           C   tau(   3) = ( -0.0000000  0.0000000  0.0000000  )

     number of k points=   126
                       cart. coord. in units 2pi/alat
        k(    1) = (   0.0000000   0.0000000   0.0000000), wk =   0.0016906
        k(    2) = (   0.0000000   0.0000000  -0.0914864), wk =   0.0033812
        k(    3) = (   0.0000000   0.0000000  -0.1829729), wk =   0.0033812
        k(    4) = (   0.0000000   0.0000000  -0.2744593), wk =   0.0033812
        k(    5) = (  -0.0769231   0.0444116   0.0000000), wk =   0.0101437
        k(    6) = (  -0.0769231   0.0444116  -0.0914864), wk =   0.0101437
        k(    7) = (  -0.0769231   0.0444116  -0.1829729), wk =   0.0101437
        k(    8) = (  -0.0769231   0.0444116  -0.2744593), wk =   0.0101437
        k(    9) = (  -0.1538462   0.0888231   0.0000000), wk =   0.0101437
        k(   10) = (  -0.1538462   0.0888231  -0.0914864), wk =   0.0101437
        k(   11) = (  -0.1538462   0.0888231  -0.1829729), wk =   0.0101437
        k(   12) = (  -0.1538462   0.0888231  -0.2744593), wk =   0.0101437
        k(   13) = (  -0.2307692   0.1332347   0.0000000), wk =   0.0101437
        k(   14) = (  -0.2307692   0.1332347  -0.0914864), wk =   0.0101437
        k(   15) = (  -0.2307692   0.1332347  -0.1829729), wk =   0.0101437
        k(   16) = (  -0.2307692   0.1332347  -0.2744593), wk =   0.0101437
        k(   17) = (  -0.3076923   0.1776462   0.0000000), wk =   0.0101437
        k(   18) = (  -0.3076923   0.1776462  -0.0914864), wk =   0.0101437
        k(   19) = (  -0.3076923   0.1776462  -0.1829729), wk =   0.0101437
        k(   20) = (  -0.3076923   0.1776462  -0.2744593), wk =   0.0101437
        k(   21) = (  -0.3846154   0.2220578   0.0000000), wk =   0.0101437
        k(   22) = (  -0.3846154   0.2220578  -0.0914864), wk =   0.0101437
        k(   23) = (  -0.3846154   0.2220578  -0.1829729), wk =   0.0101437
        k(   24) = (  -0.3846154   0.2220578  -0.2744593), wk =   0.0101437
        k(   25) = (  -0.4615385   0.2664694   0.0000000), wk =   0.0101437
        k(   26) = (  -0.4615385   0.2664694  -0.0914864), wk =   0.0101437
        k(   27) = (  -0.4615385   0.2664694  -0.1829729), wk =   0.0101437
        k(   28) = (  -0.4615385   0.2664694  -0.2744593), wk =   0.0101437
        k(   29) = (  -0.1538462   0.0000000   0.0000000), wk =   0.0101437
        k(   30) = (  -0.1538462   0.0000000  -0.0914864), wk =   0.0202874
        k(   31) = (  -0.1538462   0.0000000  -0.1829729), wk =   0.0202874
        k(   32) = (  -0.1538462   0.0000000  -0.2744593), wk =   0.0202874
        k(   33) = (  -0.2307692   0.0444116   0.0000000), wk =   0.0202874
        k(   34) = (  -0.2307692   0.0444116  -0.0914864), wk =   0.0202874
        k(   35) = (  -0.2307692   0.0444116  -0.1829729), wk =   0.0202874
        k(   36) = (  -0.2307692   0.0444116  -0.2744593), wk =   0.0202874
        k(   37) = (  -0.3076923   0.0888231   0.0000000), wk =   0.0202874
        k(   38) = (  -0.3076923   0.0888231  -0.0914864), wk =   0.0202874
        k(   39) = (  -0.3076923   0.0888231  -0.1829729), wk =   0.0202874
        k(   40) = (  -0.3076923   0.0888231  -0.2744593), wk =   0.0202874
        k(   41) = (  -0.3846154   0.1332347   0.0000000), wk =   0.0202874
        k(   42) = (  -0.3846154   0.1332347  -0.0914864), wk =   0.0202874
        k(   43) = (  -0.3846154   0.1332347  -0.1829729), wk =   0.0202874
        k(   44) = (  -0.3846154   0.1332347  -0.2744593), wk =   0.0202874
        k(   45) = (  -0.4615385   0.1776462   0.0000000), wk =   0.0202874
        k(   46) = (  -0.4615385   0.1776462  -0.0914864), wk =   0.0202874
        k(   47) = (  -0.4615385   0.1776462  -0.1829729), wk =   0.0202874
        k(   48) = (  -0.4615385   0.1776462  -0.2744593), wk =   0.0202874
        k(   49) = (  -0.5384615   0.2220578   0.0000000), wk =   0.0101437
        k(   50) = (  -0.5384615   0.2220578  -0.0914864), wk =   0.0202874
        k(   51) = (  -0.5384615   0.2220578  -0.1829729), wk =   0.0202874
        k(   52) = (  -0.5384615   0.2220578  -0.2744593), wk =   0.0202874
        k(   53) = (  -0.3076923   0.0000000   0.0000000), wk =   0.0101437
        k(   54) = (  -0.3076923   0.0000000  -0.0914864), wk =   0.0202874
        k(   55) = (  -0.3076923   0.0000000  -0.1829729), wk =   0.0202874
        k(   56) = (  -0.3076923   0.0000000  -0.2744593), wk =   0.0202874
        k(   57) = (  -0.3846154   0.0444116   0.0000000), wk =   0.0202874
        k(   58) = (  -0.3846154   0.0444116  -0.0914864), wk =   0.0202874
        k(   59) = (  -0.3846154   0.0444116  -0.1829729), wk =   0.0202874
        k(   60) = (  -0.3846154   0.0444116  -0.2744593), wk =   0.0202874
        k(   61) = (  -0.4615385   0.0888231   0.0000000), wk =   0.0202874
        k(   62) = (  -0.4615385   0.0888231  -0.0914864), wk =   0.0202874
        k(   63) = (  -0.4615385   0.0888231  -0.1829729), wk =   0.0202874
        k(   64) = (  -0.4615385   0.0888231  -0.2744593), wk =   0.0202874
        k(   65) = (  -0.5384615   0.1332347   0.0000000), wk =   0.0202874
        k(   66) = (  -0.5384615   0.1332347  -0.0914864), wk =   0.0202874
        k(   67) = (  -0.5384615   0.1332347  -0.1829729), wk =   0.0202874
        k(   68) = (  -0.5384615   0.1332347  -0.2744593), wk =   0.0202874
        k(   69) = (  -0.4615385   0.0000000   0.0000000), wk =   0.0101437
        k(   70) = (  -0.4615385   0.0000000  -0.0914864), wk =   0.0202874
        k(   71) = (  -0.4615385   0.0000000  -0.1829729), wk =   0.0202874
        k(   72) = (  -0.4615385   0.0000000  -0.2744593), wk =   0.0202874
        k(   73) = (  -0.5384615   0.0444116   0.0000000), wk =   0.0202874
        k(   74) = (  -0.5384615   0.0444116  -0.0914864), wk =   0.0202874
        k(   75) = (  -0.5384615   0.0444116  -0.1829729), wk =   0.0202874
        k(   76) = (  -0.5384615   0.0444116  -0.2744593), wk =   0.0202874
        k(   77) = (  -0.6153846   0.0888231   0.0000000), wk =   0.0101437
        k(   78) = (  -0.6153846   0.0888231  -0.0914864), wk =   0.0202874
        k(   79) = (  -0.6153846   0.0888231  -0.1829729), wk =   0.0202874
        k(   80) = (  -0.6153846   0.0888231  -0.2744593), wk =   0.0202874
        k(   81) = (  -0.6153846   0.0000000   0.0000000), wk =   0.0101437
        k(   82) = (  -0.6153846   0.0000000  -0.0914864), wk =   0.0202874
        k(   83) = (  -0.6153846   0.0000000  -0.1829729), wk =   0.0202874
        k(   84) = (  -0.6153846   0.0000000  -0.2744593), wk =   0.0202874
        k(   85) = (   0.0769231   0.0444116   0.0914864), wk =   0.0101437
        k(   86) = (   0.0769231   0.0444116   0.1829729), wk =   0.0101437
        k(   87) = (   0.0769231   0.0444116   0.2744593), wk =   0.0101437
        k(   88) = (   0.1538462   0.0888231   0.0914864), wk =   0.0101437
        k(   89) = (   0.1538462   0.0888231   0.1829729), wk =   0.0101437
        k(   90) = (   0.1538462   0.0888231   0.2744593), wk =   0.0101437
        k(   91) = (   0.2307692   0.1332347   0.0914864), wk =   0.0101437
        k(   92) = (   0.2307692   0.1332347   0.1829729), wk =   0.0101437
        k(   93) = (   0.2307692   0.1332347   0.2744593), wk =   0.0101437
        k(   94) = (   0.3076923   0.1776462   0.0914864), wk =   0.0101437
        k(   95) = (   0.3076923   0.1776462   0.1829729), wk =   0.0101437
        k(   96) = (   0.3076923   0.1776462   0.2744593), wk =   0.0101437
        k(   97) = (   0.3846154   0.2220578   0.0914864), wk =   0.0101437
        k(   98) = (   0.3846154   0.2220578   0.1829729), wk =   0.0101437
        k(   99) = (   0.3846154   0.2220578   0.2744593), wk =   0.0101437
        k(  100) = (   0.4615385   0.2664694   0.0914864), wk =   0.0101437
        k(  101) = (   0.4615385   0.2664694   0.1829729), wk =   0.0101437
        k(  102) = (   0.4615385   0.2664694   0.2744593), wk =   0.0101437
        k(  103) = (   0.2307692   0.0444116   0.0914864), wk =   0.0202874
        k(  104) = (   0.2307692   0.0444116   0.1829729), wk =   0.0202874
        k(  105) = (   0.2307692   0.0444116   0.2744593), wk =   0.0202874
        k(  106) = (   0.3076923   0.0888231   0.0914864), wk =   0.0202874
        k(  107) = (   0.3076923   0.0888231   0.1829729), wk =   0.0202874
        k(  108) = (   0.3076923   0.0888231   0.2744593), wk =   0.0202874
        k(  109) = (   0.3846154   0.1332347   0.0914864), wk =   0.0202874
        k(  110) = (   0.3846154   0.1332347   0.1829729), wk =   0.0202874
        k(  111) = (   0.3846154   0.1332347   0.2744593), wk =   0.0202874
        k(  112) = (   0.4615385   0.1776462   0.0914864), wk =   0.0202874
        k(  113) = (   0.4615385   0.1776462   0.1829729), wk =   0.0202874
        k(  114) = (   0.4615385   0.1776462   0.2744593), wk =   0.0202874
        k(  115) = (   0.3846154   0.0444116   0.0914864), wk =   0.0202874
        k(  116) = (   0.3846154   0.0444116   0.1829729), wk =   0.0202874
        k(  117) = (   0.3846154   0.0444116   0.2744593), wk =   0.0202874
        k(  118) = (   0.4615385   0.0888231   0.0914864), wk =   0.0202874
        k(  119) = (   0.4615385   0.0888231   0.1829729), wk =   0.0202874
        k(  120) = (   0.4615385   0.0888231   0.2744593), wk =   0.0202874
        k(  121) = (   0.5384615   0.1332347   0.0914864), wk =   0.0202874
        k(  122) = (   0.5384615   0.1332347   0.1829729), wk =   0.0202874
        k(  123) = (   0.5384615   0.1332347   0.2744593), wk =   0.0202874
        k(  124) = (   0.5384615   0.0444116   0.0914864), wk =   0.0202874
        k(  125) = (   0.5384615   0.0444116   0.1829729), wk =   0.0202874
        k(  126) = (   0.5384615   0.0444116   0.2744593), wk =   0.0202874

                       cryst. coord.
        k(    1) = (  -0.0000000   0.0000000   0.0000000), wk =   0.0016906
        k(    2) = (   0.0000000   0.0000000   0.1428571), wk =   0.0033812
        k(    3) = (   0.0000000   0.0000000   0.2857143), wk =   0.0033812
        k(    4) = (   0.0000000   0.0000000   0.4285714), wk =   0.0033812
        k(    5) = (  -0.0000000   0.0769231   0.0000000), wk =   0.0101437
        k(    6) = (  -0.0000000   0.0769231   0.1428571), wk =   0.0101437
        k(    7) = (  -0.0000000   0.0769231   0.2857143), wk =   0.0101437
        k(    8) = (  -0.0000000   0.0769231   0.4285714), wk =   0.0101437
        k(    9) = (  -0.0000000   0.1538462   0.0000000), wk =   0.0101437
        k(   10) = (  -0.0000000   0.1538462   0.1428571), wk =   0.0101437
        k(   11) = (  -0.0000000   0.1538462   0.2857143), wk =   0.0101437
        k(   12) = (  -0.0000000   0.1538462   0.4285714), wk =   0.0101437
        k(   13) = (   0.0000000   0.2307692   0.0000000), wk =   0.0101437
        k(   14) = (   0.0000000   0.2307692   0.1428571), wk =   0.0101437
        k(   15) = (   0.0000000   0.2307692   0.2857143), wk =   0.0101437
        k(   16) = (   0.0000000   0.2307692   0.4285714), wk =   0.0101437
        k(   17) = (  -0.0000000   0.3076923   0.0000000), wk =   0.0101437
        k(   18) = (  -0.0000000   0.3076923   0.1428571), wk =   0.0101437
        k(   19) = (  -0.0000000   0.3076923   0.2857143), wk =   0.0101437
        k(   20) = (  -0.0000000   0.3076923   0.4285714), wk =   0.0101437
        k(   21) = (   0.0000000   0.3846154   0.0000000), wk =   0.0101437
        k(   22) = (   0.0000000   0.3846154   0.1428571), wk =   0.0101437
        k(   23) = (   0.0000000   0.3846154   0.2857143), wk =   0.0101437
        k(   24) = (   0.0000000   0.3846154   0.4285714), wk =   0.0101437
        k(   25) = (   0.0000000   0.4615385   0.0000000), wk =   0.0101437
        k(   26) = (   0.0000000   0.4615385   0.1428571), wk =   0.0101437
        k(   27) = (   0.0000000   0.4615385   0.2857143), wk =   0.0101437
        k(   28) = (   0.0000000   0.4615385   0.4285714), wk =   0.0101437
        k(   29) = (   0.0769231   0.0769231   0.0000000), wk =   0.0101437
        k(   30) = (   0.0769231   0.0769231   0.1428571), wk =   0.0202874
        k(   31) = (   0.0769231   0.0769231   0.2857143), wk =   0.0202874
        k(   32) = (   0.0769231   0.0769231   0.4285714), wk =   0.0202874
        k(   33) = (   0.0769231   0.1538462   0.0000000), wk =   0.0202874
        k(   34) = (   0.0769231   0.1538462   0.1428571), wk =   0.0202874
        k(   35) = (   0.0769231   0.1538462   0.2857143), wk =   0.0202874
        k(   36) = (   0.0769231   0.1538462   0.4285714), wk =   0.0202874
        k(   37) = (   0.0769231   0.2307692   0.0000000), wk =   0.0202874
        k(   38) = (   0.0769231   0.2307692   0.1428571), wk =   0.0202874
        k(   39) = (   0.0769231   0.2307692   0.2857143), wk =   0.0202874
        k(   40) = (   0.0769231   0.2307692   0.4285714), wk =   0.0202874
        k(   41) = (   0.0769231   0.3076923   0.0000000), wk =   0.0202874
        k(   42) = (   0.0769231   0.3076923   0.1428571), wk =   0.0202874
        k(   43) = (   0.0769231   0.3076923   0.2857143), wk =   0.0202874
        k(   44) = (   0.0769231   0.3076923   0.4285714), wk =   0.0202874
        k(   45) = (   0.0769231   0.3846154   0.0000000), wk =   0.0202874
        k(   46) = (   0.0769231   0.3846154   0.1428571), wk =   0.0202874
        k(   47) = (   0.0769231   0.3846154   0.2857143), wk =   0.0202874
        k(   48) = (   0.0769231   0.3846154   0.4285714), wk =   0.0202874
        k(   49) = (   0.0769231   0.4615385   0.0000000), wk =   0.0101437
        k(   50) = (   0.0769231   0.4615385   0.1428571), wk =   0.0202874
        k(   51) = (   0.0769231   0.4615385   0.2857143), wk =   0.0202874
        k(   52) = (   0.0769231   0.4615385   0.4285714), wk =   0.0202874
        k(   53) = (   0.1538462   0.1538462   0.0000000), wk =   0.0101437
        k(   54) = (   0.1538462   0.1538462   0.1428571), wk =   0.0202874
        k(   55) = (   0.1538462   0.1538462   0.2857143), wk =   0.0202874
        k(   56) = (   0.1538462   0.1538462   0.4285714), wk =   0.0202874
        k(   57) = (   0.1538462   0.2307692   0.0000000), wk =   0.0202874
        k(   58) = (   0.1538462   0.2307692   0.1428571), wk =   0.0202874
        k(   59) = (   0.1538462   0.2307692   0.2857143), wk =   0.0202874
        k(   60) = (   0.1538462   0.2307692   0.4285714), wk =   0.0202874
        k(   61) = (   0.1538462   0.3076923   0.0000000), wk =   0.0202874
        k(   62) = (   0.1538462   0.3076923   0.1428571), wk =   0.0202874
        k(   63) = (   0.1538462   0.3076923   0.2857143), wk =   0.0202874
        k(   64) = (   0.1538462   0.3076923   0.4285714), wk =   0.0202874
        k(   65) = (   0.1538462   0.3846154   0.0000000), wk =   0.0202874
        k(   66) = (   0.1538462   0.3846154   0.1428571), wk =   0.0202874
        k(   67) = (   0.1538462   0.3846154   0.2857143), wk =   0.0202874
        k(   68) = (   0.1538462   0.3846154   0.4285714), wk =   0.0202874
        k(   69) = (   0.2307692   0.2307692   0.0000000), wk =   0.0101437
        k(   70) = (   0.2307692   0.2307692   0.1428571), wk =   0.0202874
        k(   71) = (   0.2307692   0.2307692   0.2857143), wk =   0.0202874
        k(   72) = (   0.2307692   0.2307692   0.4285714), wk =   0.0202874
        k(   73) = (   0.2307692   0.3076923   0.0000000), wk =   0.0202874
        k(   74) = (   0.2307692   0.3076923   0.1428571), wk =   0.0202874
        k(   75) = (   0.2307692   0.3076923   0.2857143), wk =   0.0202874
        k(   76) = (   0.2307692   0.3076923   0.4285714), wk =   0.0202874
        k(   77) = (   0.2307692   0.3846154   0.0000000), wk =   0.0101437
        k(   78) = (   0.2307692   0.3846154   0.1428571), wk =   0.0202874
        k(   79) = (   0.2307692   0.3846154   0.2857143), wk =   0.0202874
        k(   80) = (   0.2307692   0.3846154   0.4285714), wk =   0.0202874
        k(   81) = (   0.3076923   0.3076923   0.0000000), wk =   0.0101437
        k(   82) = (   0.3076923   0.3076923   0.1428571), wk =   0.0202874
        k(   83) = (   0.3076923   0.3076923   0.2857143), wk =   0.0202874
        k(   84) = (   0.3076923   0.3076923   0.4285714), wk =   0.0202874
        k(   85) = (  -0.0769231   0.0000000  -0.1428571), wk =   0.0101437
        k(   86) = (  -0.0769231   0.0000000  -0.2857143), wk =   0.0101437
        k(   87) = (  -0.0769231   0.0000000  -0.4285714), wk =   0.0101437
        k(   88) = (  -0.1538462   0.0000000  -0.1428571), wk =   0.0101437
        k(   89) = (  -0.1538462   0.0000000  -0.2857143), wk =   0.0101437
        k(   90) = (  -0.1538462   0.0000000  -0.4285714), wk =   0.0101437
        k(   91) = (  -0.2307692   0.0000000  -0.1428571), wk =   0.0101437
        k(   92) = (  -0.2307692   0.0000000  -0.2857143), wk =   0.0101437
        k(   93) = (  -0.2307692   0.0000000  -0.4285714), wk =   0.0101437
        k(   94) = (  -0.3076923   0.0000000  -0.1428571), wk =   0.0101437
        k(   95) = (  -0.3076923   0.0000000  -0.2857143), wk =   0.0101437
        k(   96) = (  -0.3076923   0.0000000  -0.4285714), wk =   0.0101437
        k(   97) = (  -0.3846154   0.0000000  -0.1428571), wk =   0.0101437
        k(   98) = (  -0.3846154   0.0000000  -0.2857143), wk =   0.0101437
        k(   99) = (  -0.3846154   0.0000000  -0.4285714), wk =   0.0101437
        k(  100) = (  -0.4615385   0.0000000  -0.1428571), wk =   0.0101437
        k(  101) = (  -0.4615385   0.0000000  -0.2857143), wk =   0.0101437
        k(  102) = (  -0.4615385   0.0000000  -0.4285714), wk =   0.0101437
        k(  103) = (  -0.1538462  -0.0769231  -0.1428571), wk =   0.0202874
        k(  104) = (  -0.1538462  -0.0769231  -0.2857143), wk =   0.0202874
        k(  105) = (  -0.1538462  -0.0769231  -0.4285714), wk =   0.0202874
        k(  106) = (  -0.2307692  -0.0769231  -0.1428571), wk =   0.0202874
        k(  107) = (  -0.2307692  -0.0769231  -0.2857143), wk =   0.0202874
        k(  108) = (  -0.2307692  -0.0769231  -0.4285714), wk =   0.0202874
        k(  109) = (  -0.3076923  -0.0769231  -0.1428571), wk =   0.0202874
        k(  110) = (  -0.3076923  -0.0769231  -0.2857143), wk =   0.0202874
        k(  111) = (  -0.3076923  -0.0769231  -0.4285714), wk =   0.0202874
        k(  112) = (  -0.3846154  -0.0769231  -0.1428571), wk =   0.0202874
        k(  113) = (  -0.3846154  -0.0769231  -0.2857143), wk =   0.0202874
        k(  114) = (  -0.3846154  -0.0769231  -0.4285714), wk =   0.0202874
        k(  115) = (  -0.2307692  -0.1538462  -0.1428571), wk =   0.0202874
        k(  116) = (  -0.2307692  -0.1538462  -0.2857143), wk =   0.0202874
        k(  117) = (  -0.2307692  -0.1538462  -0.4285714), wk =   0.0202874
        k(  118) = (  -0.3076923  -0.1538462  -0.1428571), wk =   0.0202874
        k(  119) = (  -0.3076923  -0.1538462  -0.2857143), wk =   0.0202874
        k(  120) = (  -0.3076923  -0.1538462  -0.4285714), wk =   0.0202874
        k(  121) = (  -0.3846154  -0.1538462  -0.1428571), wk =   0.0202874
        k(  122) = (  -0.3846154  -0.1538462  -0.2857143), wk =   0.0202874
        k(  123) = (  -0.3846154  -0.1538462  -0.4285714), wk =   0.0202874
        k(  124) = (  -0.3076923  -0.2307692  -0.1428571), wk =   0.0202874
        k(  125) = (  -0.3076923  -0.2307692  -0.2857143), wk =   0.0202874
        k(  126) = (  -0.3076923  -0.2307692  -0.4285714), wk =   0.0202874

     Dense  grid:    21181 G-vectors     FFT dimensions: (  32,  32,  50)

     Smooth grid:     7415 G-vectors     FFT dimensions: (  24,  24,  36)

     Dynamical RAM for                 wfc:       0.43 MB

     Dynamical RAM for     wfc (w. buffer):      54.30 MB

     Dynamical RAM for           str. fact:       0.65 MB

     Dynamical RAM for           local pot:       0.00 MB

     Dynamical RAM for          nlocal pot:       0.63 MB

     Dynamical RAM for                qrad:       2.87 MB

     Dynamical RAM for          rho,v,vnew:       2.14 MB

     Dynamical RAM for               rhoin:       0.71 MB

     Dynamical RAM for            rho*nmix:       5.17 MB

     Dynamical RAM for           G-vectors:       1.27 MB

     Dynamical RAM for          h,s,v(r/c):       0.16 MB

     Dynamical RAM for          <psi|beta>:       0.02 MB

     Dynamical RAM for                 psi:       0.86 MB

     Dynamical RAM for                hpsi:       0.86 MB

     Dynamical RAM for                spsi:       0.86 MB

     Dynamical RAM for      wfcinit/wfcrot:       0.88 MB

     Dynamical RAM for           addusdens:      60.76 MB

     Dynamical RAM for          addusforce:      61.58 MB

     Estimated static dynamical RAM per process >      70.66 MB

     Estimated max dynamical RAM per process >     132.24 MB

     Check: negative core charge=   -0.000009

     Initial potential from superposition of free atoms

     starting charge   29.99750, renormalised to   30.00000

     negative rho (up, down):  9.505E-04 0.000E+00
     Starting wfcs are   24 randomized atomic wfcs +    6 random wfcs
     Checking if some PAW data can be deallocated... 

     total cpu time spent up to now is        9.9 secs

     Self-consistent Calculation

     iteration #  1     ecut=    40.00 Ry     beta= 0.40
     Davidson diagonalization with overlap
     ethr =  1.00E-02,  avg # of iterations =  3.9

     negative rho (up, down):  2.384E-03 0.000E+00

     total cpu time spent up to now is       39.9 secs

     total energy              =    -308.31419302 Ry
     estimated scf accuracy    <       1.06633229 Ry

     iteration #  2     ecut=    40.00 Ry     beta= 0.40
     Davidson diagonalization with overlap
     ethr =  3.55E-03,  avg # of iterations =  1.9

     negative rho (up, down):  1.984E-03 0.000E+00

     total cpu time spent up to now is       61.4 secs

     total energy              =    -308.56853863 Ry
     estimated scf accuracy    <       0.74762746 Ry

     iteration #  3     ecut=    40.00 Ry     beta= 0.40
     Davidson diagonalization with overlap
     ethr =  2.49E-03,  avg # of iterations =  1.0

     negative rho (up, down):  2.211E-03 0.000E+00

     total cpu time spent up to now is       89.9 secs

     total energy              =    -308.69594064 Ry
     estimated scf accuracy    <       0.00739133 Ry

     iteration #  4     ecut=    40.00 Ry     beta= 0.40
     Davidson diagonalization with overlap
     ethr =  2.46E-05,  avg # of iterations =  3.1

     negative rho (up, down):  2.450E-03 0.000E+00

     total cpu time spent up to now is      114.6 secs

     total energy              =    -308.69677518 Ry
     estimated scf accuracy    <       0.00108886 Ry

     iteration #  5     ecut=    40.00 Ry     beta= 0.40
     Davidson diagonalization with overlap
     ethr =  3.63E-06,  avg # of iterations =  2.0

     negative rho (up, down):  2.464E-03 0.000E+00

     total cpu time spent up to now is      138.4 secs

     total energy              =    -308.69679744 Ry
     estimated scf accuracy    <       0.00002440 Ry

     iteration #  6     ecut=    40.00 Ry     beta= 0.40
     Davidson diagonalization with overlap
     ethr =  8.13E-08,  avg # of iterations =  1.9

     negative rho (up, down):  2.464E-03 0.000E+00

     total cpu time spent up to now is      166.6 secs

     total energy              =    -308.69679976 Ry
     estimated scf accuracy    <       0.00000230 Ry

     iteration #  7     ecut=    40.00 Ry     beta= 0.40
     Davidson diagonalization with overlap
     ethr =  7.67E-09,  avg # of iterations =  2.0

     negative rho (up, down):  2.466E-03 0.000E+00

     total cpu time spent up to now is      196.1 secs

     total energy              =    -308.69680017 Ry
     estimated scf accuracy    <       0.00000096 Ry

     iteration #  8     ecut=    40.00 Ry     beta= 0.40
     Davidson diagonalization with overlap
     ethr =  3.19E-09,  avg # of iterations =  1.0

     negative rho (up, down):  2.468E-03 0.000E+00

     total cpu time spent up to now is      226.8 secs

     total energy              =    -308.69680024 Ry
     estimated scf accuracy    <       0.00000007 Ry

     iteration #  9     ecut=    40.00 Ry     beta= 0.40
     Davidson diagonalization with overlap
     ethr =  2.24E-10,  avg # of iterations =  1.4

     negative rho (up, down):  2.468E-03 0.000E+00

     total cpu time spent up to now is      254.1 secs

     total energy              =    -308.69680026 Ry
     estimated scf accuracy    <          9.2E-10 Ry

     iteration # 10     ecut=    40.00 Ry     beta= 0.40
     Davidson diagonalization with overlap
     ethr =  3.05E-12,  avg # of iterations =  2.0

     negative rho (up, down):  2.467E-03 0.000E+00

     total cpu time spent up to now is      281.6 secs

     End of self-consistent calculation

          k = 0.0000 0.0000 0.0000 (   953 PWs)   bands (ev):

   -48.0914 -47.9806 -22.1756 -21.7550 -21.7550 -21.6741 -21.6741 -21.5695
     3.6499  10.5548  13.3892  13.3892  14.1299  16.2307  16.3423  16.3423
    16.6475  16.6475  17.5757  17.5757  19.2062  22.6321  22.6321  26.9424
    28.0750  33.7095  33.7095  34.2668  36.5250  37.8295

     occupation numbers 
     1.0000   1.0000   1.0000   1.0000   1.0000   1.0000   1.0000   1.0000
     1.0000   1.0000   1.0000   1.0000   1.0000   1.0000   1.0000   0.0000
     0.0000   0.0000   0.0000   0.0000   0.0000   0.0000   0.0000   0.0000
     0.0000   0.0000   0.0000   0.0000   0.0000   0.0000

          k = 0.0000 0.0000-0.0915 (   947 PWs)   bands (ev):

   -48.0860 -47.9861 -22.1466 -21.7512 -21.7512 -21.6780 -21.6780 -21.6006
     3.7118  10.3749  13.3394  13.3394  14.2461  16.1097  16.2608  16.2608
    16.7458  16.7458  17.7225  17.7225  19.4841  22.4737  22.4737  26.3537
    28.5653  33.5974  33.8312  33.8312  37.0427  37.8054

     occupation numbers 
     1.0000   1.0000   1.0000   1.0000   1.0000   1.0000   1.0000   1.0000
     1.0000   1.0000   1.0000   1.0000   1.0000   1.0000   1.0000   0.0000
     0.0000   0.0000   0.0000   0.0000   0.0000   0.0000   0.0000   0.0000
     0.0000   0.0000   0.0000   0.0000   0.0000   0.0000

          k = 0.0000 0.0000-0.1830 (   947 PWs)   bands (ev):

   -48.0708 -48.0015 -22.0649 -21.7405 -21.7405 -21.6887 -21.6887 -21.6870
     3.8584   9.9860  13.2385  13.2385  14.5442  15.8182  16.0404  16.0404
    17.1261  17.1261  17.9361  17.9361  20.0921  22.1073  22.1073  25.5538
    29.2137  32.3058  34.1198  34.1198  37.7906  37.9805

     occupation numbers 
     1.0000   1.0000   1.0000   1.0000   1.0000   1.0000   1.0000   1.0000
     1.0000   1.0000   1.0000   1.0000   1.0000   1.0000   1.0000   0.0000
     0.0000   0.0000   0.0000   0.0000   0.0000   0.0000   0.0000   0.0000
     0.0000   0.0000   0.0000   0.0000   0.0000   0.0000

          k = 0.0000 0.0000-0.2745 (   941 PWs)   bands (ev):

   -48.0491 -48.0234 -21.9455 -21.8101 -21.7262 -21.7262 -21.7030 -21.7030
     3.9851   9.6833  13.1662  13.1662  14.9173  15.4601  15.8893  15.8893
    17.5491  17.5491  17.9753  17.9753  20.5846  21.7987  21.7987  25.0569
    29.9027  31.0341  34.3751  34.3751  37.9008  37.9008

     occupation numbers 
     1.0000   1.0000   1.0000   1.0000   1.0000   1.0000   1.0000   1.0000
     1.0000   1.0000   1.0000   1.0000   1.0000   1.0000   1.0000   0.0000
     0.0000   0.0000   0.0000   0.0000   0.0000   0.0000   0.0000   0.0000
     0.0000   0.0000   0.0000   0.0000   0.0000   0.0000

          k =-0.0769 0.0444 0.0000 (   949 PWs)   bands (ev):

   -48.0870 -47.9791 -22.1644 -21.7770 -21.7631 -21.6952 -21.6758 -21.5738
     3.7512  10.6822  12.9971  13.3951  14.2729  16.0861  16.3232  16.4148
    16.5382  16.5751  17.7304  17.8098  19.4033  22.4547  22.5780  27.3075
    28.1417  32.7441  33.5863  34.7028  35.6963  37.9681

     occupation numbers 
     1.0000   1.0000   1.0000   1.0000   1.0000   1.0000   1.0000   1.0000
     1.0000   1.0000   1.0000   1.0000   1.0000   1.0000   1.0000   0.0000
     0.0000   0.0000   0.0000   0.0000   0.0000   0.0000   0.0000   0.0000
     0.0000   0.0000   0.0000   0.0000   0.0000   0.0000

          k =-0.0769 0.0444-0.0915 (   941 PWs)   bands (ev):

   -48.0817 -47.9845 -22.1372 -21.7738 -21.7575 -21.7007 -21.6814 -21.6007
     3.8088  10.5050  12.9904  13.4075  14.3085  15.9500  16.2273  16.3056
    16.5419  16.8808  17.8250  17.8776  19.7122  22.1454  22.6134  26.6442
    28.6750  32.8708  33.3413  34.7325  35.5984  37.7806

     occupation numbers 
     1.0000   1.0000   1.0000   1.0000   1.0000   1.0000   1.0000   1.0000
     1.0000   1.0000   1.0000   1.0000   1.0000   1.0000   1.0000   0.0000
     0.0000   0.0000   0.0000   0.0000   0.0000   0.0000   0.0000   0.0000
     0.0000   0.0000   0.0000   0.0000   0.0000   0.0000

          k =-0.0769 0.0444-0.1830 (   952 PWs)   bands (ev):

   -48.0670 -47.9994 -22.0605 -21.7634 -21.7447 -21.7290 -21.6943 -21.6639
     3.9460  10.1261  12.9839  13.3216  14.5231  15.7144  15.9880  16.0679
    16.9183  17.2958  17.9540  18.0235  20.3225  21.7747  22.3524  25.8152
    29.3121  32.1821  33.5221  34.4479  35.9593  37.5150

     occupation numbers 
     1.0000   1.0000   1.0000   1.0000   1.0000   1.0000   1.0000   1.0000
     1.0000   1.0000   1.0000   1.0000   1.0000   1.0000   1.0000   0.0000
     0.0000   0.0000   0.0000   0.0000   0.0000   0.0000   0.0000   0.0000
     0.0000   0.0000   0.0000   0.0000   0.0000   0.0000

          k =-0.0769 0.0444-0.2745 (   956 PWs)   bands (ev):

   -48.0458 -48.0207 -21.9497 -21.8256 -21.7377 -21.7286 -21.7104 -21.7071
     4.0645   9.8330  12.9888  13.2146  14.8826  15.3548  15.8040  15.9577
    17.4089  17.6564  17.9388  18.0054  20.7782  21.6555  21.9740  25.3068
    29.9908  31.0472  34.0231  34.0770  36.2976  37.1389

     occupation numbers 
     1.0000   1.0000   1.0000   1.0000   1.0000   1.0000   1.0000   1.0000
     1.0000   1.0000   1.0000   1.0000   1.0000   1.0000   1.0000   0.0000
     0.0000   0.0000   0.0000   0.0000   0.0000   0.0000   0.0000   0.0000
     0.0000   0.0000   0.0000   0.0000   0.0000   0.0000

          k =-0.1538 0.0888 0.0000 (   935 PWs)   bands (ev):

   -48.0746 -47.9750 -22.1325 -21.8378 -21.7844 -21.7531 -21.6816 -21.5871
     4.0376  11.0356  12.3001  13.3815  14.3342  15.5387  16.1474  16.4311
    16.7352  16.7563  18.0162  18.3518  19.8227  22.0409  22.3981  28.2128
    28.3207  31.1549  33.3292  33.9641  35.8145  37.2882

     occupation numbers 
     1.0000   1.0000   1.0000   1.0000   1.0000   1.0000   1.0000   1.0000
     1.0000   1.0000   1.0000   1.0000   1.0000   1.0000   1.0000   0.0000
     0.0000   0.0000   0.0000   0.0000   0.0000   0.0000   0.0000   0.0000
     0.0000   0.0000   0.0000   0.0000   0.0000   0.0000

          k =-0.1538 0.0888-0.0915 (   941 PWs)   bands (ev):

   -48.0697 -47.9800 -22.1117 -21.8318 -21.7773 -21.7607 -21.6888 -21.6076
     4.0811  10.8695  12.3937  13.4546  14.2867  15.5042  16.0698  16.2632
    16.6757  16.9660  18.1058  18.2405  20.2993  21.6520  22.6190  27.2406
    29.0224  31.6639  32.9290  34.0559  35.5815  36.5767

     occupation numbers 
     1.0000   1.0000   1.0000   1.0000   1.0000   1.0000   1.0000   1.0000
     1.0000   1.0000   1.0000   1.0000   1.0000   1.0000   1.0000   0.0000
     0.0000   0.0000   0.0000   0.0000   0.0000   0.0000   0.0000   0.0000
     0.0000   0.0000   0.0000   0.0000   0.0000   0.0000

          k =-0.1538 0.0888-0.1830 (   951 PWs)   bands (ev):

   -48.0561 -47.9938 -22.0528 -21.8190 -21.7863 -21.7616 -21.7046 -21.6570
     4.1910  10.5261  12.5036  13.4062  14.3853  15.4309  15.8367  16.1818
    16.8420  17.2879  18.1527  18.1709  20.8415  21.4922  22.5307  26.3627
    29.5694  31.6770  33.0152  33.4419  35.3337  36.4686

     occupation numbers 
     1.0000   1.0000   1.0000   1.0000   1.0000   1.0000   1.0000   1.0000
     1.0000   1.0000   1.0000   1.0000   1.0000   1.0000   1.0000   0.0000
     0.0000   0.0000   0.0000   0.0000   0.0000   0.0000   0.0000   0.0000
     0.0000   0.0000   0.0000   0.0000   0.0000   0.0000

          k =-0.1538 0.0888-0.2745 (   945 PWs)   bands (ev):

   -48.0366 -48.0134 -21.9709 -21.8708 -21.7626 -21.7411 -21.7251 -21.7135
     4.2883  10.2576  12.5688  13.2847  14.6578  15.3156  15.5025  16.1774
    17.2734  17.6650  17.9741  18.0462  20.9393  21.8725  22.1936  25.8595
    30.1963  30.9268  32.4963  33.6276  35.5428  36.4036

     occupation numbers 
     1.0000   1.0000   1.0000   1.0000   1.0000   1.0000   1.0000   1.0000
     1.0000   1.0000   1.0000   1.0000   1.0000   1.0000   1.0000   0.0000
     0.0000   0.0000   0.0000   0.0000   0.0000   0.0000   0.0000   0.0000
     0.0000   0.0000   0.0000   0.0000   0.0000   0.0000

          k =-0.2308 0.1332 0.0000 (   943 PWs)   bands (ev):

   -48.0564 -47.9700 -22.0838 -21.9233 -21.8328 -21.8127 -21.6913 -21.6100
     4.4579  11.4954  11.6200  13.2967  14.2124  15.0168  15.9024  16.5872
    17.1166  17.1695  18.2712  18.9198  20.3214  21.5910  22.0581  28.3030
    29.3409  29.5482  33.1068  33.3686  35.1010  35.5323

     occupation numbers 
     1.0000   1.0000   1.0000   1.0000   1.0000   1.0000   1.0000   1.0000
     1.0000   1.0000   1.0000   1.0000   1.0000   1.0000   1.0000   0.0000
     0.0000   0.0000   0.0000   0.0000   0.0000   0.0000   0.0000   0.0000
     0.0000   0.0000   0.0000   0.0000   0.0000   0.0000

          k =-0.2308 0.1332-0.0915 (   942 PWs)   bands (ev):

   -48.0521 -47.9742 -22.0805 -21.9046 -21.8409 -21.8047 -21.6995 -21.6246
     4.4774  11.3794  11.7668  13.4082  14.1719  15.0144  15.8063  16.3532
    17.0694  17.1883  18.3108  18.6574  21.0609  21.1947  22.4232  27.4698
    29.6542  30.3790  32.6581  32.8329  35.4107  35.6908

     occupation numbers 
     1.0000   1.0000   1.0000   1.0000   1.0000   1.0000   1.0000   1.0000
     1.0000   1.0000   1.0000   1.0000   1.0000   1.0000   1.0000   0.0000
     0.0000   0.0000   0.0000   0.0000   0.0000   0.0000   0.0000   0.0000
     0.0000   0.0000   0.0000   0.0000   0.0000   0.0000

          k =-0.2308 0.1332-0.1830 (   937 PWs)   bands (ev):

   -48.0403 -47.9862 -22.0598 -21.8930 -21.8386 -21.7863 -21.7181 -21.6610
     4.5470  11.1059  11.9266  13.4259  14.1826  15.0788  15.6953  16.3131
    17.0765  17.2791  18.2766  18.4109  20.7536  22.0904  22.5464  26.6799
    29.8303  30.8202  32.0109  32.4927  35.5498  35.7618

     occupation numbers 
     1.0000   1.0000   1.0000   1.0000   1.0000   1.0000   1.0000   1.0000
     1.0000   1.0000   1.0000   1.0000   1.0000   1.0000   1.0000   0.0000
     0.0000   0.0000   0.0000   0.0000   0.0000   0.0000   0.0000   0.0000
     0.0000   0.0000   0.0000   0.0000   0.0000   0.0000

          k =-0.2308 0.1332-0.2745 (   933 PWs)   bands (ev):

   -48.0233 -48.0033 -22.0211 -21.9409 -21.7764 -21.7613 -21.7432 -21.7154
     4.6166  10.8512  12.0167  13.3329  14.3768  15.1234  15.4153  16.4507
    17.3042  17.5844  18.0755  18.1073  20.7176  22.3447  22.6687  26.3164
    29.7314  30.5515  31.5569  32.7514  35.4745  36.3974

     occupation numbers 
     1.0000   1.0000   1.0000   1.0000   1.0000   1.0000   1.0000   1.0000
     1.0000   1.0000   1.0000   1.0000   1.0000   1.0000   1.0000   0.0000
     0.0000   0.0000   0.0000   0.0000   0.0000   0.0000   0.0000   0.0000
     0.0000   0.0000   0.0000   0.0000   0.0000   0.0000

          k =-0.3077 0.1776 0.0000 (   938 PWs)   bands (ev):

   -48.0357 -47.9659 -22.0306 -22.0082 -21.9151 -21.8413 -21.7030 -21.6420
     4.9303  10.9644  11.9983  13.1487  13.9324  14.7377  15.8141  16.9995
    17.5691  17.6530  18.4543  19.1908  20.6505  21.5491  21.5512  27.2714
    28.8698  30.2773  32.6995  32.9831  33.8194  34.9572

     occupation numbers 
     1.0000   1.0000   1.0000   1.0000   1.0000   1.0000   1.0000   1.0000
     1.0000   1.0000   1.0000   1.0000   1.0000   1.0000   1.0000   0.0000
     0.0000   0.0000   0.0000   0.0000   0.0000   0.0000   0.0000   0.0000
     0.0000   0.0000   0.0000   0.0000   0.0000   0.0000

          k =-0.3077 0.1776-0.0915 (   938 PWs)   bands (ev):

   -48.0322 -47.9694 -22.0785 -21.9508 -21.9161 -21.8328 -21.7117 -21.6506
     4.9216  11.1666  11.8887  13.2657  14.0290  14.6553  15.6689  16.7132
    17.5339  17.5498  18.4710  18.8745  20.6277  22.0126  22.1142  26.7783
    29.2863  30.7342  31.5975  32.4522  34.6459  35.0971

     occupation numbers 
     1.0000   1.0000   1.0000   1.0000   1.0000   1.0000   1.0000   1.0000
     1.0000   1.0000   1.0000   1.0000   1.0000   1.0000   1.0000   0.0000
     0.0000   0.0000   0.0000   0.0000   0.0000   0.0000   0.0000   0.0000
     0.0000   0.0000   0.0000   0.0000   0.0000   0.0000

          k =-0.3077 0.1776-0.1830 (   942 PWs)   bands (ev):

   -48.0226 -47.9790 -22.0987 -21.9752 -21.8499 -21.8124 -21.7324 -21.6726
     4.9477  11.2893  11.7349  13.3520  14.0674  14.7697  15.6317  16.5536
    17.4447  17.4934  18.3939  18.5311  20.4105  22.3597  23.0588  26.2389
    29.2306  30.7075  31.3015  31.8749  35.0027  35.6558

     occupation numbers 
     1.0000   1.0000   1.0000   1.0000   1.0000   1.0000   1.0000   1.0000
     1.0000   1.0000   1.0000   1.0000   1.0000   1.0000   1.0000   0.0000
     0.0000   0.0000   0.0000   0.0000   0.0000   0.0000   0.0000   0.0000
     0.0000   0.0000   0.0000   0.0000   0.0000   0.0000

          k =-0.3077 0.1776-0.2745 (   927 PWs)   bands (ev):

   -48.0089 -47.9928 -22.0881 -22.0221 -21.7840 -21.7708 -21.7610 -21.7156
     4.9902  11.1086  11.7709  13.3290  14.2687  14.8146  15.5607  16.6547
    17.5531  17.5840  18.1663  18.2156  20.4145  22.3609  23.4885  26.2651
    28.3306  30.4949  31.6890  31.6991  35.2827  35.9969

     occupation numbers 
     1.0000   1.0000   1.0000   1.0000   1.0000   1.0000   1.0000   1.0000
     1.0000   1.0000   1.0000   1.0000   1.0000   1.0000   1.0000   0.0000
     0.0000   0.0000   0.0000   0.0000   0.0000   0.0000   0.0000   0.0000
     0.0000   0.0000   0.0000   0.0000   0.0000   0.0000

          k =-0.3846 0.2221 0.0000 (   930 PWs)   bands (ev):

   -48.0165 -47.9645 -22.0916 -21.9821 -21.9625 -21.8643 -21.7133 -21.6795
     5.3487  10.4993  12.2906  13.0013  13.6326  14.6854  15.9163  17.5645
    18.0923  18.1053  18.5724  19.2014  20.2188  20.9389  22.4262  25.9128
    28.5058  30.4804  31.7453  32.9393  33.6691  34.6666

     occupation numbers 
     1.0000   1.0000   1.0000   1.0000   1.0000   1.0000   1.0000   1.0000
     1.0000   1.0000   1.0000   1.0000   1.0000   1.0000   1.0000   0.0000
     0.0000   0.0000   0.0000   0.0000   0.0000   0.0000   0.0000   0.0000
     0.0000   0.0000   0.0000   0.0000   0.0000   0.0000

          k =-0.3846 0.2221-0.0915 (   935 PWs)   bands (ev):

   -48.0140 -47.9671 -22.1215 -22.0016 -21.9108 -21.8558 -21.7220 -21.6814
     5.3215  10.6612  12.2084  13.1020  13.8441  14.5634  15.7765  17.2385
    17.9497  18.0494  18.5866  18.9119  20.1064  21.4609  23.1646  25.5166
    28.8114  30.3421  31.4998  32.2032  34.1290  35.0957

     occupation numbers 
     1.0000   1.0000   1.0000   1.0000   1.0000   1.0000   1.0000   1.0000
     1.0000   1.0000   1.0000   1.0000   1.0000   1.0000   1.0000   0.0000
     0.0000   0.0000   0.0000   0.0000   0.0000   0.0000   0.0000   0.0000
     0.0000   0.0000   0.0000   0.0000   0.0000   0.0000

          k =-0.3846 0.2221-0.1830 (   929 PWs)   bands (ev):

   -48.0068 -47.9743 -22.1479 -22.0462 -21.8341 -21.8321 -21.7441 -21.6881
     5.3144  10.7432  12.1098  13.2313  14.1213  14.5928  15.7274  16.8918
    17.8061  17.9097  18.5040  18.5549  20.0163  22.0218  23.9052  25.1987
    28.6912  30.1519  31.2722  31.6255  34.7868  35.1383

     occupation numbers 
     1.0000   1.0000   1.0000   1.0000   1.0000   1.0000   1.0000   1.0000
     1.0000   1.0000   1.0000   1.0000   1.0000   1.0000   1.0000   0.0000
     0.0000   0.0000   0.0000   0.0000   0.0000   0.0000   0.0000   0.0000
     0.0000   0.0000   0.0000   0.0000   0.0000   0.0000

          k =-0.3846 0.2221-0.2745 (   927 PWs)   bands (ev):

   -47.9965 -47.9845 -22.1464 -22.0934 -21.8035 -21.7749 -21.7580 -21.7158
     5.3327  10.6629  12.0657  13.2845  14.4233  14.6645  15.7157  16.7926
    17.6079  17.9617  18.3298  18.3671  20.0287  22.2531  23.7529  25.8559
    27.6858  30.4196  30.8062  31.8686  35.0449  35.6116

     occupation numbers 
     1.0000   1.0000   1.0000   1.0000   1.0000   1.0000   1.0000   1.0000
     1.0000   1.0000   1.0000   1.0000   1.0000   1.0000   1.0000   0.0000
     0.0000   0.0000   0.0000   0.0000   0.0000   0.0000   0.0000   0.0000
     0.0000   0.0000   0.0000   0.0000   0.0000   0.0000

          k =-0.4615 0.2665 0.0000 (   914 PWs)   bands (ev):

   -48.0040 -47.9654 -22.1339 -22.0193 -21.9192 -21.8770 -21.7194 -21.7104
     5.5991  10.2447  12.3992  12.9130  13.4584  14.7074  16.0626  18.0403
    18.3548  18.6560  18.7229  19.1689  19.5631  20.4196  23.5108  24.7302
    28.1069  30.1685  31.5003  32.9355  33.7367  34.0291

     occupation numbers 
     1.0000   1.0000   1.0000   1.0000   1.0000   1.0000   1.0000   1.0000
     1.0000   1.0000   1.0000   1.0000   1.0000   1.0000   1.0000   0.0000
     0.0000   0.0000   0.0000   0.0000   0.0000   0.0000   0.0000   0.0000
     0.0000   0.0000   0.0000   0.0000   0.0000   0.0000

          k =-0.4615 0.2665-0.0915 (   925 PWs)   bands (ev):

   -48.0021 -47.9673 -22.1529 -22.0405 -21.8835 -21.8689 -21.7277 -21.7050
     5.5782  10.3094  12.3304  12.9860  13.6619  14.6914  15.9850  17.7588
    18.1967  18.6251  18.6343  18.9139  19.5615  20.9440  24.1494  24.2269
    28.5071  29.7920  31.6395  31.9878  33.9326  35.0357

     occupation numbers 
     1.0000   1.0000   1.0000   1.0000   1.0000   1.0000   1.0000   1.0000
     1.0000   1.0000   1.0000   1.0000   1.0000   1.0000   1.0000   0.0000
     0.0000   0.0000   0.0000   0.0000   0.0000   0.0000   0.0000   0.0000
     0.0000   0.0000   0.0000   0.0000   0.0000   0.0000

          k =-0.4615 0.2665-0.1830 (   917 PWs)   bands (ev):

   -47.9967 -47.9726 -22.1761 -22.0895 -21.8469 -21.8157 -21.7500 -21.6991
     5.5575  10.3422  12.2348  13.1276  14.0515  14.7854  15.8985  17.2248
    18.1121  18.1843  18.5529  18.7854  19.5467  21.6682  23.6658  24.9868
    28.5241  29.7823  30.9156  31.7718  34.3644  35.2439

     occupation numbers 
     1.0000   1.0000   1.0000   1.0000   1.0000   1.0000   1.0000   1.0000
     1.0000   1.0000   1.0000   1.0000   1.0000   1.0000   1.0000   0.0000
     0.0000   0.0000   0.0000   0.0000   0.0000   0.0000   0.0000   0.0000
     0.0000   0.0000   0.0000   0.0000   0.0000   0.0000

          k =-0.4615 0.2665-0.2745 (   925 PWs)   bands (ev):

   -47.9891 -47.9802 -22.1765 -22.1376 -21.8153 -21.7820 -21.7513 -21.7138
     5.5525  10.3173  12.1784  13.2355  14.3774  14.9550  15.8211  16.9020
    17.6563  18.2263  18.4763  18.7287  19.5332  22.1066  23.2514  25.9332
    27.5374  30.3058  30.4219  31.8269  34.9541  35.2273

     occupation numbers 
     1.0000   1.0000   1.0000   1.0000   1.0000   1.0000   1.0000   1.0000
     1.0000   1.0000   1.0000   1.0000   1.0000   1.0000   1.0000   0.0000
     0.0000   0.0000   0.0000   0.0000   0.0000   0.0000   0.0000   0.0000
     0.0000   0.0000   0.0000   0.0000   0.0000   0.0000

          k =-0.1538 0.0000 0.0000 (   941 PWs)   bands (ev):

   -48.0786 -47.9763 -22.1429 -21.8135 -21.7873 -21.7267 -21.6830 -21.5826
     3.9451  10.9234  12.5033  13.3766  14.3396  15.6941  16.2474  16.4173
    16.5589  16.7458  17.8960  18.2459  19.6910  22.1717  22.4492  27.9492
    28.2598  32.0161  32.5047  34.8464  35.6225  37.5547

     occupation numbers 
     1.0000   1.0000   1.0000   1.0000   1.0000   1.0000   1.0000   1.0000
     1.0000   1.0000   1.0000   1.0000   1.0000   1.0000   1.0000   0.0000
     0.0000   0.0000   0.0000   0.0000   0.0000   0.0000   0.0000   0.0000
     0.0000   0.0000   0.0000   0.0000   0.0000   0.0000

          k =-0.1538 0.0000-0.0915 (   946 PWs)   bands (ev):

   -48.0736 -47.9814 -22.1192 -21.8068 -21.7839 -21.7366 -21.6876 -21.6035
     3.9961  10.7481  12.5681  13.3264  14.3863  15.6378  16.1717  16.3814
    16.5524  16.9502  17.9787  18.1846  20.0047  21.9006  22.5190  27.1424
    28.9192  31.8852  32.6840  34.7373  35.5900  36.9281

     occupation numbers 
     1.0000   1.0000   1.0000   1.0000   1.0000   1.0000   1.0000   1.0000
     1.0000   1.0000   1.0000   1.0000   1.0000   1.0000   1.0000   0.0000
     0.0000   0.0000   0.0000   0.0000   0.0000   0.0000   0.0000   0.0000
     0.0000   0.0000   0.0000   0.0000   0.0000   0.0000

          k =-0.1538 0.0000-0.1830 (   950 PWs)   bands (ev):

   -48.0596 -47.9956 -22.0532 -21.7964 -21.7812 -21.7548 -21.7006 -21.6550
     4.1158  10.3872  12.6725  13.2399  14.5443  15.4896  15.8472  16.2754
    16.8571  17.3395  18.0574  18.1346  20.5967  21.6063  22.3991  26.2817
    29.5092  31.8615  32.3619  34.7761  35.1004  36.8972

     occupation numbers 
     1.0000   1.0000   1.0000   1.0000   1.0000   1.0000   1.0000   1.0000
     1.0000   1.0000   1.0000   1.0000   1.0000   1.0000   1.0000   0.0000
     0.0000   0.0000   0.0000   0.0000   0.0000   0.0000   0.0000   0.0000
     0.0000   0.0000   0.0000   0.0000   0.0000   0.0000

          k =-0.1538 0.0000-0.2745 (   949 PWs)   bands (ev):

   -48.0395 -48.0157 -21.9604 -21.8584 -21.7538 -21.7440 -21.7193 -21.7083
     4.2178  10.1163  12.7331  13.1808  14.8336  15.2349  15.5952  16.1474
    17.3484  17.6950  17.9214  18.0264  20.9735  21.6229  22.1671  25.7342
    30.1373  31.0440  32.5729  33.9517  35.7216  36.7065

     occupation numbers 
     1.0000   1.0000   1.0000   1.0000   1.0000   1.0000   1.0000   1.0000
     1.0000   1.0000   1.0000   1.0000   1.0000   1.0000   1.0000   0.0000
     0.0000   0.0000   0.0000   0.0000   0.0000   0.0000   0.0000   0.0000
     0.0000   0.0000   0.0000   0.0000   0.0000   0.0000

          k =-0.2308 0.0444 0.0000 (   938 PWs)   bands (ev):

   -48.0633 -47.9717 -22.1025 -21.8809 -21.8375 -21.7711 -21.6955 -21.6008
     4.2987  11.3475  11.8660  13.2920  14.2963  15.1590  15.9902  16.4845
    16.8481  17.1412  18.1027  18.8998  20.0725  21.7657  22.1554  28.4076
    28.9770  30.4578  31.8743  33.9385  36.1228  36.4064

     occupation numbers 
     1.0000   1.0000   1.0000   1.0000   1.0000   1.0000   1.0000   1.0000
     1.0000   1.0000   1.0000   1.0000   1.0000   1.0000   1.0000   0.0000
     0.0000   0.0000   0.0000   0.0000   0.0000   0.0000   0.0000   0.0000
     0.0000   0.0000   0.0000   0.0000   0.0000   0.0000

          k =-0.2308 0.0444-0.0915 (   940 PWs)   bands (ev):

   -48.0588 -47.9763 -22.0894 -21.8705 -21.8355 -21.7755 -21.7027 -21.6157
     4.3317  11.1856  12.0012  13.2852  14.3235  15.1658  16.0500  16.2147
    16.8387  17.2107  18.1648  18.6540  20.6308  21.3935  22.4470  27.6105
    29.4090  31.1352  31.5357  33.6487  35.8757  36.2947

     occupation numbers 
     1.0000   1.0000   1.0000   1.0000   1.0000   1.0000   1.0000   1.0000
     1.0000   1.0000   1.0000   1.0000   1.0000   1.0000   1.0000   0.0000
     0.0000   0.0000   0.0000   0.0000   0.0000   0.0000   0.0000   0.0000
     0.0000   0.0000   0.0000   0.0000   0.0000   0.0000

          k =-0.2308 0.0444-0.1830 (   941 PWs)   bands (ev):

   -48.0462 -47.9890 -22.0507 -21.8674 -21.8225 -21.7777 -21.7191 -21.6544
     4.4181  10.8772  12.1672  13.2045  14.4542  15.1596  15.8409  16.2259
    16.8880  17.4298  18.1468  18.4124  20.9156  21.5389  22.5810  26.7564
    29.7470  31.3217  31.5863  32.9560  35.3885  36.5488

     occupation numbers 
     1.0000   1.0000   1.0000   1.0000   1.0000   1.0000   1.0000   1.0000
     1.0000   1.0000   1.0000   1.0000   1.0000   1.0000   1.0000   0.0000
     0.0000   0.0000   0.0000   0.0000   0.0000   0.0000   0.0000   0.0000
     0.0000   0.0000   0.0000   0.0000   0.0000   0.0000

          k =-0.2308 0.0444-0.2745 (   935 PWs)   bands (ev):

   -48.0283 -48.0070 -21.9956 -21.9146 -21.7742 -21.7642 -21.7378 -21.7074
     4.4951  10.6363  12.2651  13.1352  14.6517  15.2005  15.3826  16.3454
    17.2242  17.7438  17.9084  18.1702  20.9400  21.7923  22.6697  26.2454
    30.1447  30.7497  31.6154  32.5331  35.8950  36.6587

     occupation numbers 
     1.0000   1.0000   1.0000   1.0000   1.0000   1.0000   1.0000   1.0000
     1.0000   1.0000   1.0000   1.0000   1.0000   1.0000   1.0000   0.0000
     0.0000   0.0000   0.0000   0.0000   0.0000   0.0000   0.0000   0.0000
     0.0000   0.0000   0.0000   0.0000   0.0000   0.0000

          k =-0.3077 0.0888 0.0000 (   945 PWs)   bands (ev):

   -48.0438 -47.9672 -22.0488 -21.9678 -21.8983 -21.8176 -21.7090 -21.6286
     4.7454  11.2475  11.8367  13.1431  14.1168  14.7560  15.7741  16.8168
    17.2171  17.6395  18.2856  19.3791  20.5263  21.4501  21.6953  28.0926
    29.0735  29.9977  31.7889  32.9950  34.5093  36.0224

     occupation numbers 
     1.0000   1.0000   1.0000   1.0000   1.0000   1.0000   1.0000   1.0000
     1.0000   1.0000   1.0000   1.0000   1.0000   1.0000   1.0000   0.0000
     0.0000   0.0000   0.0000   0.0000   0.0000   0.0000   0.0000   0.0000
     0.0000   0.0000   0.0000   0.0000   0.0000   0.0000

          k =-0.3077 0.0888-0.0915 (   938 PWs)   bands (ev):

   -48.0400 -47.9710 -22.0669 -21.9362 -21.8957 -21.8164 -21.7180 -21.6374
     4.7528  11.4153  11.7274  13.1517  14.2053  14.7513  15.7467  16.4798
    17.2115  17.6120  18.3295  18.9821  20.8762  21.4474  22.2137  27.3905
    29.6301  30.4107  31.4873  32.2696  35.0314  35.8207

     occupation numbers 
     1.0000   1.0000   1.0000   1.0000   1.0000   1.0000   1.0000   1.0000
     1.0000   1.0000   1.0000   1.0000   1.0000   1.0000   1.0000   0.0000
     0.0000   0.0000   0.0000   0.0000   0.0000   0.0000   0.0000   0.0000
     0.0000   0.0000   0.0000   0.0000   0.0000   0.0000

          k =-0.3077 0.0888-0.1830 (   940 PWs)   bands (ev):

   -48.0295 -47.9816 -22.0728 -21.9447 -21.8480 -21.8066 -21.7377 -21.6618
     4.7977  11.4742  11.6155  13.0816  14.3410  14.8676  15.8260  16.1809
    17.2260  17.6296  18.2481  18.6140  20.6248  22.0258  22.8403  26.7139
    29.5848  30.5021  31.2788  31.9843  34.9763  36.5395

     occupation numbers 
     1.0000   1.0000   1.0000   1.0000   1.0000   1.0000   1.0000   1.0000
     1.0000   1.0000   1.0000   1.0000   1.0000   1.0000   1.0000   0.0000
     0.0000   0.0000   0.0000   0.0000   0.0000   0.0000   0.0000   0.0000
     0.0000   0.0000   0.0000   0.0000   0.0000   0.0000

          k =-0.3077 0.0888-0.2745 (   930 PWs)   bands (ev):

   -48.0144 -47.9967 -22.0544 -21.9870 -21.7925 -21.7814 -21.7516 -21.7057
     4.8479  11.1974  11.7640  13.0405  14.4982  14.9905  15.4949  16.4387
    17.3568  17.7973  17.9664  18.3146  20.6500  22.0419  23.3252  26.4537
    29.0236  30.2589  31.2145  32.1450  35.7460  36.3588

     occupation numbers 
     1.0000   1.0000   1.0000   1.0000   1.0000   1.0000   1.0000   1.0000
     1.0000   1.0000   1.0000   1.0000   1.0000   1.0000   1.0000   0.0000
     0.0000   0.0000   0.0000   0.0000   0.0000   0.0000   0.0000   0.0000
     0.0000   0.0000   0.0000   0.0000   0.0000   0.0000

          k =-0.3846 0.1332 0.0000 (   933 PWs)   bands (ev):

   -48.0237 -47.9647 -22.0543 -21.9852 -21.9581 -21.8558 -21.7220 -21.6643
     5.1916  10.7446  12.2069  12.9677  13.8483  14.6363  15.7308  17.3153
    17.6390  18.1700  18.4219  19.4784  20.4720  21.0933  21.9621  26.7495
    28.6925  30.5474  31.6660  31.9840  33.9603  35.1014

     occupation numbers 
     1.0000   1.0000   1.0000   1.0000   1.0000   1.0000   1.0000   1.0000
     1.0000   1.0000   1.0000   1.0000   1.0000   1.0000   1.0000   0.0000
     0.0000   0.0000   0.0000   0.0000   0.0000   0.0000   0.0000   0.0000
     0.0000   0.0000   0.0000   0.0000   0.0000   0.0000

          k =-0.3846 0.1332-0.0915 (   935 PWs)   bands (ev):

   -48.0207 -47.9676 -22.0924 -21.9797 -21.9192 -21.8501 -21.7322 -21.6661
     5.1748  10.9215  12.1234  13.0032  14.0097  14.5808  15.6500  16.9144
    17.6517  18.0685  18.4894  19.0913  20.3532  21.5436  22.6771  26.3054
    29.0670  30.7095  30.9920  31.8385  34.3868  34.8733

     occupation numbers 
     1.0000   1.0000   1.0000   1.0000   1.0000   1.0000   1.0000   1.0000
     1.0000   1.0000   1.0000   1.0000   1.0000   1.0000   1.0000   0.0000
     0.0000   0.0000   0.0000   0.0000   0.0000   0.0000   0.0000   0.0000
     0.0000   0.0000   0.0000   0.0000   0.0000   0.0000

          k =-0.3846 0.1332-0.1830 (   929 PWs)   bands (ev):

   -48.0126 -47.9758 -22.1188 -22.0159 -21.8540 -21.8211 -21.7545 -21.6751
     5.1827  11.0450  11.9969  12.9771  14.2259  14.7249  15.7481  16.4561
    17.6730  17.9284  18.4029  18.6692  20.2379  21.9766  23.5615  25.8428
    28.9983  29.9405  30.9632  32.0680  34.4618  35.7743

     occupation numbers 
     1.0000   1.0000   1.0000   1.0000   1.0000   1.0000   1.0000   1.0000
     1.0000   1.0000   1.0000   1.0000   1.0000   1.0000   1.0000   0.0000
     0.0000   0.0000   0.0000   0.0000   0.0000   0.0000   0.0000   0.0000
     0.0000   0.0000   0.0000   0.0000   0.0000   0.0000

          k =-0.3846 0.1332-0.2745 (   934 PWs)   bands (ev):

   -48.0010 -47.9874 -22.1160 -22.0596 -21.8169 -21.7929 -21.7490 -21.7050
     5.2097  10.9681  11.9488  12.9725  14.4540  14.8670  15.7020  16.4424
    17.6728  17.9113  18.1371  18.4539  20.2916  22.0834  23.8384  26.0453
    28.0736  29.7129  31.0030  32.2926  35.1301  36.2218

     occupation numbers 
     1.0000   1.0000   1.0000   1.0000   1.0000   1.0000   1.0000   1.0000
     1.0000   1.0000   1.0000   1.0000   1.0000   1.0000   1.0000   0.0000
     0.0000   0.0000   0.0000   0.0000   0.0000   0.0000   0.0000   0.0000
     0.0000   0.0000   0.0000   0.0000   0.0000   0.0000

          k =-0.4615 0.1776 0.0000 (   927 PWs)   bands (ev):

   -48.0073 -47.9650 -22.1126 -22.0020 -21.9311 -21.8805 -21.7314 -21.7014
     5.5270  10.4096  12.3920  12.8007  13.6573  14.6647  15.8508  17.8081
    18.0201  18.5338  18.7008  19.4496  19.9067  20.5193  23.0276  25.4351
    28.2857  30.4543  31.1927  31.5659  34.3450  34.7385

     occupation numbers 
     1.0000   1.0000   1.0000   1.0000   1.0000   1.0000   1.0000   1.0000
     1.0000   1.0000   1.0000   1.0000   1.0000   1.0000   1.0000   0.0000
     0.0000   0.0000   0.0000   0.0000   0.0000   0.0000   0.0000   0.0000
     0.0000   0.0000   0.0000   0.0000   0.0000   0.0000

          k =-0.4615 0.1776-0.0915 (   929 PWs)   bands (ev):

   -48.0052 -47.9671 -22.1343 -22.0223 -21.8994 -21.8645 -21.7432 -21.6949
     5.5034  10.5194  12.3162  12.8724  13.8379  14.6229  15.7870  17.3794
    18.0533  18.4470  18.7623  19.0760  19.7967  21.0421  23.7139  24.9625
    28.6627  29.9480  30.9086  31.9778  34.3229  34.5940

     occupation numbers 
     1.0000   1.0000   1.0000   1.0000   1.0000   1.0000   1.0000   1.0000
     1.0000   1.0000   1.0000   1.0000   1.0000   1.0000   1.0000   0.0000
     0.0000   0.0000   0.0000   0.0000   0.0000   0.0000   0.0000   0.0000
     0.0000   0.0000   0.0000   0.0000   0.0000   0.0000

          k =-0.4615 0.1776-0.1830 (   924 PWs)   bands (ev):

   -47.9993 -47.9729 -22.1584 -22.0683 -21.8683 -21.8059 -21.7675 -21.6892
     5.4901  10.5764  12.2262  12.9212  14.1894  14.7388  15.8286  16.8111
    18.0808  18.2478  18.5379  18.7559  19.7903  21.6624  24.0254  24.9535
    28.6798  29.3971  30.7309  32.2268  34.4746  35.0678

     occupation numbers 
     1.0000   1.0000   1.0000   1.0000   1.0000   1.0000   1.0000   1.0000
     1.0000   1.0000   1.0000   1.0000   1.0000   1.0000   1.0000   0.0000
     0.0000   0.0000   0.0000   0.0000   0.0000   0.0000   0.0000   0.0000
     0.0000   0.0000   0.0000   0.0000   0.0000   0.0000

          k =-0.4615 0.1776-0.2745 (   926 PWs)   bands (ev):

   -47.9909 -47.9812 -22.1589 -22.1146 -21.8353 -21.8033 -21.7400 -21.7047
     5.4969  10.5296  12.1705  12.9499  14.5258  14.9025  15.8936  16.4826
    17.9192  18.0827  18.3641  18.7017  19.8423  21.9826  23.5768  25.8308
    27.8053  29.2046  30.9914  32.2327  34.9484  35.6928

     occupation numbers 
     1.0000   1.0000   1.0000   1.0000   1.0000   1.0000   1.0000   1.0000
     1.0000   1.0000   1.0000   1.0000   1.0000   1.0000   1.0000   0.0000
     0.0000   0.0000   0.0000   0.0000   0.0000   0.0000   0.0000   0.0000
     0.0000   0.0000   0.0000   0.0000   0.0000   0.0000

          k =-0.5385 0.2221 0.0000 (   924 PWs)   bands (ev):

   -48.0004 -47.9660 -22.1338 -22.0180 -21.9060 -21.8891 -21.7348 -21.7203
     5.6529  10.2909  12.4513  12.7178  13.5942  14.6915  15.9345  18.0723
    18.1309  18.6221  19.1863  19.2978  19.5249  20.1948  24.0474  24.3807
    28.0578  30.2406  31.0431  31.5527  34.1625  35.4316

     occupation numbers 
     1.0000   1.0000   1.0000   1.0000   1.0000   1.0000   1.0000   1.0000
     1.0000   1.0000   1.0000   1.0000   1.0000   1.0000   1.0000   0.0000
     0.0000   0.0000   0.0000   0.0000   0.0000   0.0000   0.0000   0.0000
     0.0000   0.0000   0.0000   0.0000   0.0000   0.0000

          k =-0.5385 0.2221-0.0915 (   923 PWs)   bands (ev):

   -47.9987 -47.9677 -22.1485 -22.0411 -21.8989 -21.8590 -21.7470 -21.7069
     5.6459  10.2965  12.3809  12.7743  13.7525  14.7505  15.9299  17.7562
    18.2016  18.4793  18.9467  19.2522  19.4986  20.6577  23.7147  24.6856
    28.5078  29.5794  31.0142  31.8238  34.1651  35.1202

     occupation numbers 
     1.0000   1.0000   1.0000   1.0000   1.0000   1.0000   1.0000   1.0000
     1.0000   1.0000   1.0000   1.0000   1.0000   1.0000   1.0000   0.0000
     0.0000   0.0000   0.0000   0.0000   0.0000   0.0000   0.0000   0.0000
     0.0000   0.0000   0.0000   0.0000   0.0000   0.0000

          k =-0.5385 0.2221-0.1830 (   924 PWs)   bands (ev):

   -47.9939 -47.9724 -22.1690 -22.0917 -21.8764 -21.7975 -21.7720 -21.6935
     5.6302  10.3093  12.2755  12.8685  14.1329  14.9066  15.9237  17.1393
    18.2029  18.3108  18.5433  19.1264  19.5039  21.3780  23.3006  25.2857
    28.5650  29.2093  30.7630  32.0072  34.7464  34.9217

     occupation numbers 
     1.0000   1.0000   1.0000   1.0000   1.0000   1.0000   1.0000   1.0000
     1.0000   1.0000   1.0000   1.0000   1.0000   1.0000   1.0000   0.0000
     0.0000   0.0000   0.0000   0.0000   0.0000   0.0000   0.0000   0.0000
     0.0000   0.0000   0.0000   0.0000   0.0000   0.0000

          k =-0.5385 0.2221-0.2745 (   927 PWs)   bands (ev):

   -47.9871 -47.9792 -22.1697 -22.1395 -21.8433 -21.8062 -21.7386 -21.7017
     5.6179  10.3197  12.2139  12.9336  14.5086  15.0540  15.9491  16.6119
    17.9336  18.2023  18.5081  18.9960  19.5020  21.8646  23.0819  26.0089
    27.7276  29.0432  31.0899  32.0037  35.1381  35.3137

     occupation numbers 
     1.0000   1.0000   1.0000   1.0000   1.0000   1.0000   1.0000   1.0000
     1.0000   1.0000   1.0000   1.0000   1.0000   1.0000   1.0000   0.0000
     0.0000   0.0000   0.0000   0.0000   0.0000   0.0000   0.0000   0.0000
     0.0000   0.0000   0.0000   0.0000   0.0000   0.0000

          k =-0.3077 0.0000 0.0000 (   925 PWs)   bands (ev):

   -48.0466 -47.9678 -22.0566 -21.9280 -21.9205 -21.7937 -21.7219 -21.6240
     4.6791  11.3949  11.7753  13.0912  14.2246  14.7237  15.7523  16.7686
    17.0776  17.6541  18.1773  19.6399  20.2903  21.5176  21.6707  28.4988
    29.6105  29.9163  30.5934  33.0232  35.1394  35.8029

     occupation numbers 
     1.0000   1.0000   1.0000   1.0000   1.0000   1.0000   1.0000   1.0000
     1.0000   1.0000   1.0000   1.0000   1.0000   1.0000   1.0000   0.0000
     0.0000   0.0000   0.0000   0.0000   0.0000   0.0000   0.0000   0.0000
     0.0000   0.0000   0.0000   0.0000   0.0000   0.0000

          k =-0.3077 0.0000-0.0915 (   939 PWs)   bands (ev):

   -48.0428 -47.9717 -22.0597 -21.9240 -21.9014 -21.8020 -21.7278 -21.6306
     4.7033  11.3908  11.7497  12.9804  14.3374  14.8076  15.7886  16.5895
    17.1361  17.6389  18.1942  19.2186  20.7663  21.1333  22.1688  27.9993
    29.4082  30.1716  30.8948  32.8295  35.1043  35.9022

     occupation numbers 
     1.0000   1.0000   1.0000   1.0000   1.0000   1.0000   1.0000   1.0000
     1.0000   1.0000   1.0000   1.0000   1.0000   1.0000   1.0000   0.0000
     0.0000   0.0000   0.0000   0.0000   0.0000   0.0000   0.0000   0.0000
     0.0000   0.0000   0.0000   0.0000   0.0000   0.0000

          k =-0.3077 0.0000-0.1830 (   939 PWs)   bands (ev):

   -48.0319 -47.9826 -22.0546 -21.9427 -21.8422 -21.8103 -21.7430 -21.6539
     4.7588  11.2900  11.7776  12.8448  14.5888  14.8770  15.7594  16.3875
    17.1968  17.7133  18.1137  18.7256  20.8780  21.3545  22.7584  27.2403
    29.1374  30.4175  31.0142  32.5537  34.8482  36.9156

     occupation numbers 
     1.0000   1.0000   1.0000   1.0000   1.0000   1.0000   1.0000   1.0000
     1.0000   1.0000   1.0000   1.0000   1.0000   1.0000   1.0000   0.0000
     0.0000   0.0000   0.0000   0.0000   0.0000   0.0000   0.0000   0.0000
     0.0000   0.0000   0.0000   0.0000   0.0000   0.0000

          k =-0.3077 0.0000-0.2745 (   935 PWs)   bands (ev):

   -48.0164 -47.9981 -22.0326 -21.9782 -21.8029 -21.7893 -21.7479 -21.6969
     4.8047  11.1524  11.8633  12.7924  14.8190  14.9509  15.4009  16.4764
    17.3645  17.6799  18.0516  18.3487  20.9777  21.4848  23.2758  26.6716
    29.2234  30.1715  30.8594  32.2678  35.7874  37.0201

     occupation numbers 
     1.0000   1.0000   1.0000   1.0000   1.0000   1.0000   1.0000   1.0000
     1.0000   1.0000   1.0000   1.0000   1.0000   1.0000   1.0000   0.0000
     0.0000   0.0000   0.0000   0.0000   0.0000   0.0000   0.0000   0.0000
     0.0000   0.0000   0.0000   0.0000   0.0000   0.0000

          k =-0.3846 0.0444 0.0000 (   933 PWs)   bands (ev):

   -48.0275 -47.9649 -22.0149 -21.9928 -21.9644 -21.8349 -21.7466 -21.6565
     5.1006  10.9845  12.1556  12.8655  14.0977  14.5005  15.5298  17.2291
    17.3977  18.1926  18.2600  19.9543  20.5401  21.0225  21.6778  27.8817
    28.6637  30.2973  30.5051  32.2340  33.9272  35.0768

     occupation numbers 
     1.0000   1.0000   1.0000   1.0000   1.0000   1.0000   1.0000   1.0000
     1.0000   1.0000   1.0000   1.0000   1.0000   1.0000   1.0000   0.0000
     0.0000   0.0000   0.0000   0.0000   0.0000   0.0000   0.0000   0.0000
     0.0000   0.0000   0.0000   0.0000   0.0000   0.0000

          k =-0.3846 0.0444-0.0915 (   936 PWs)   bands (ev):

   -48.0244 -47.9680 -22.0583 -21.9856 -21.9133 -21.8417 -21.7550 -21.6560
     5.1023  11.1095  12.0925  12.7405  14.2855  14.5406  15.5349  16.8493
    17.5304  18.0287  18.3873  19.4528  20.5815  21.1867  22.3337  27.2601
    29.0794  29.9569  30.8301  32.0029  34.5277  34.6736

     occupation numbers 
     1.0000   1.0000   1.0000   1.0000   1.0000   1.0000   1.0000   1.0000
     1.0000   1.0000   1.0000   1.0000   1.0000   1.0000   1.0000   0.0000
     0.0000   0.0000   0.0000   0.0000   0.0000   0.0000   0.0000   0.0000
     0.0000   0.0000   0.0000   0.0000   0.0000   0.0000

          k =-0.3846 0.0444-0.1830 (   935 PWs)   bands (ev):

   -48.0158 -47.9767 -22.0844 -22.0045 -21.8542 -21.8341 -21.7693 -21.6635
     5.1240  11.2991  11.8953  12.5690  14.5727  14.7096  15.7156  16.3449
    17.6157  17.8802  18.3857  18.8719  20.5140  21.5203  23.2367  26.6789
    28.7273  29.6773  30.8047  32.4915  34.1380  36.1392

     occupation numbers 
     1.0000   1.0000   1.0000   1.0000   1.0000   1.0000   1.0000   1.0000
     1.0000   1.0000   1.0000   1.0000   1.0000   1.0000   1.0000   0.0000
     0.0000   0.0000   0.0000   0.0000   0.0000   0.0000   0.0000   0.0000
     0.0000   0.0000   0.0000   0.0000   0.0000   0.0000

          k =-0.3846 0.0444-0.2745 (   934 PWs)   bands (ev):

   -48.0035 -47.9890 -22.0837 -22.0354 -21.8379 -21.8196 -21.7411 -21.6924
     5.1500  11.3723  11.7377  12.5298  14.6827  15.0103  15.6041  16.3176
    17.5318  17.8479  18.2904  18.5212  20.6602  21.5711  23.8213  26.4300
    28.4482  29.0613  30.7411  32.6828  35.1871  36.9830

     occupation numbers 
     1.0000   1.0000   1.0000   1.0000   1.0000   1.0000   1.0000   1.0000
     1.0000   1.0000   1.0000   1.0000   1.0000   1.0000   1.0000   0.0000
     0.0000   0.0000   0.0000   0.0000   0.0000   0.0000   0.0000   0.0000
     0.0000   0.0000   0.0000   0.0000   0.0000   0.0000

          k =-0.4615 0.0888 0.0000 (   934 PWs)   bands (ev):

   -48.0095 -47.9647 -22.0765 -21.9899 -21.9392 -21.8807 -21.7642 -21.6952
     5.4653  10.6872  12.3325  12.6792  13.9550  14.5544  15.4670  17.6301
    17.8104  18.3380  18.6791  19.8218  20.1959  20.6280  22.6118  26.4567
    28.3688  30.0145  30.4296  31.4904  34.1729  34.6928

     occupation numbers 
     1.0000   1.0000   1.0000   1.0000   1.0000   1.0000   1.0000   1.0000
     1.0000   1.0000   1.0000   1.0000   1.0000   1.0000   1.0000   0.0000
     0.0000   0.0000   0.0000   0.0000   0.0000   0.0000   0.0000   0.0000
     0.0000   0.0000   0.0000   0.0000   0.0000   0.0000

          k =-0.4615 0.0888-0.0915 (   929 PWs)   bands (ev):

   -48.0073 -47.9669 -22.0975 -22.0119 -21.9046 -21.8691 -21.7757 -21.6866
     5.4525  10.8034  12.2960  12.6098  14.0967  14.6034  15.4551  17.1891
    17.9580  18.2243  18.7608  19.5270  19.9870  20.9847  23.2420  25.9333
    28.7269  29.3600  30.9732  31.6158  34.1527  34.5348

     occupation numbers 
     1.0000   1.0000   1.0000   1.0000   1.0000   1.0000   1.0000   1.0000
     1.0000   1.0000   1.0000   1.0000   1.0000   1.0000   1.0000   0.0000
     0.0000   0.0000   0.0000   0.0000   0.0000   0.0000   0.0000   0.0000
     0.0000   0.0000   0.0000   0.0000   0.0000   0.0000

          k =-0.4615 0.0888-0.1830 (   927 PWs)   bands (ev):

   -48.0011 -47.9731 -22.1224 -22.0464 -21.8946 -21.8218 -21.7814 -21.6779
     5.4524  10.9088  12.2417  12.4200  14.4121  14.8084  15.6450  16.5921
    17.9358  18.1437  18.7817  18.8881  20.0668  21.4119  23.8968  25.5051
    28.2983  29.1310  30.9507  32.5690  33.7117  35.5681

     occupation numbers 
     1.0000   1.0000   1.0000   1.0000   1.0000   1.0000   1.0000   1.0000
     1.0000   1.0000   1.0000   1.0000   1.0000   1.0000   1.0000   0.0000
     0.0000   0.0000   0.0000   0.0000   0.0000   0.0000   0.0000   0.0000
     0.0000   0.0000   0.0000   0.0000   0.0000   0.0000

          k =-0.4615 0.0888-0.2745 (   927 PWs)   bands (ev):

   -47.9923 -47.9819 -22.1261 -22.0836 -21.8717 -21.8437 -21.7278 -21.6910
     5.4652  10.9005  12.1392  12.3928  14.6774  15.0366  15.8587  16.2142
    17.7147  18.2177  18.4140  18.7800  20.2487  21.5823  23.9273  25.7288
    28.0618  28.5015  30.9206  32.8330  34.6861  36.8177

     occupation numbers 
     1.0000   1.0000   1.0000   1.0000   1.0000   1.0000   1.0000   1.0000
     1.0000   1.0000   1.0000   1.0000   1.0000   1.0000   1.0000   0.0000
     0.0000   0.0000   0.0000   0.0000   0.0000   0.0000   0.0000   0.0000
     0.0000   0.0000   0.0000   0.0000   0.0000   0.0000

          k =-0.5385 0.1332 0.0000 (   937 PWs)   bands (ev):

   -47.9972 -47.9667 -22.1136 -21.9995 -21.9119 -21.8945 -21.7736 -21.7289
     5.6779  10.5324  12.3523  12.5763  13.8854  14.6407  15.5417  17.8714
    18.1187  18.4613  19.0236  19.4038  19.9058  20.4517  23.8314  25.1254
    28.0496  29.7111  30.1981  31.1772  34.4968  34.9402

     occupation numbers 
     1.0000   1.0000   1.0000   1.0000   1.0000   1.0000   1.0000   1.0000
     1.0000   1.0000   1.0000   1.0000   1.0000   1.0000   1.0000   0.0000
     0.0000   0.0000   0.0000   0.0000   0.0000   0.0000   0.0000   0.0000
     0.0000   0.0000   0.0000   0.0000   0.0000   0.0000

          k =-0.5385 0.1332-0.0915 (   928 PWs)   bands (ev):

   -47.9957 -47.9682 -22.1262 -22.0221 -21.9277 -21.8448 -21.7891 -21.7117
     5.6686  10.5752  12.3111  12.5654  14.0256  14.6905  15.5577  17.5055
    18.2130  18.3634  18.9739  19.3888  19.8249  20.6627  24.2874  24.6472
    28.3174  28.9884  30.8647  31.4816  34.0796  34.9773

     occupation numbers 
     1.0000   1.0000   1.0000   1.0000   1.0000   1.0000   1.0000   1.0000
     1.0000   1.0000   1.0000   1.0000   1.0000   1.0000   1.0000   0.0000
     0.0000   0.0000   0.0000   0.0000   0.0000   0.0000   0.0000   0.0000
     0.0000   0.0000   0.0000   0.0000   0.0000   0.0000

          k =-0.5385 0.1332-0.1830 (   930 PWs)   bands (ev):

   -47.9915 -47.9724 -22.1449 -22.0694 -21.9207 -21.8202 -21.7747 -21.6901
     5.6626  10.5988  12.2812  12.4580  14.3873  14.8782  15.6884  16.8947
    18.1062  18.3995  18.6777  19.2480  19.8244  21.1567  23.7913  25.1748
    27.8234  29.0385  30.9366  32.4255  33.7494  35.5143

     occupation numbers 
     1.0000   1.0000   1.0000   1.0000   1.0000   1.0000   1.0000   1.0000
     1.0000   1.0000   1.0000   1.0000   1.0000   1.0000   1.0000   0.0000
     0.0000   0.0000   0.0000   0.0000   0.0000   0.0000   0.0000   0.0000
     0.0000   0.0000   0.0000   0.0000   0.0000   0.0000

          k =-0.5385 0.1332-0.2745 (   926 PWs)   bands (ev):

   -47.9854 -47.9784 -22.1470 -22.1138 -21.8923 -21.8564 -21.7187 -21.6907
     5.6645  10.5830  12.2693  12.3727  14.7658  15.0436  15.9399  16.3212
    17.9649  18.2905  18.5340  19.1299  19.9199  21.4911  23.3448  25.6871
    27.7333  28.4523  31.2027  32.4932  34.6429  36.3634

     occupation numbers 
     1.0000   1.0000   1.0000   1.0000   1.0000   1.0000   1.0000   1.0000
     1.0000   1.0000   1.0000   1.0000   1.0000   1.0000   1.0000   0.0000
     0.0000   0.0000   0.0000   0.0000   0.0000   0.0000   0.0000   0.0000
     0.0000   0.0000   0.0000   0.0000   0.0000   0.0000

          k =-0.4615 0.0000 0.0000 (   935 PWs)   bands (ev):

   -48.0103 -47.9646 -22.0503 -21.9991 -21.9419 -21.8675 -21.7893 -21.6930
     5.4412  10.8438  12.2479  12.6684  14.1341  14.4565  15.2709  17.6408
    17.6845  18.2524  18.6679  19.9750  20.1998  20.8205  22.3967  27.3854
    27.9736  29.4370  30.1772  32.0045  33.7199  34.7089

     occupation numbers 
     1.0000   1.0000   1.0000   1.0000   1.0000   1.0000   1.0000   1.0000
     1.0000   1.0000   1.0000   1.0000   1.0000   1.0000   1.0000   0.0000
     0.0000   0.0000   0.0000   0.0000   0.0000   0.0000   0.0000   0.0000
     0.0000   0.0000   0.0000   0.0000   0.0000   0.0000

          k =-0.4615 0.0000-0.0915 (   932 PWs)   bands (ev):

   -48.0081 -47.9669 -22.0550 -22.0381 -21.8886 -21.8824 -21.7940 -21.6827
     5.4451  10.8926  12.2513  12.4825  14.3585  14.5231  15.2828  17.3406
    17.9169  18.0419  18.7203  19.7291  20.1949  20.8880  22.7673  26.9616
    27.8354  29.5149  30.4030  32.4625  33.8927  34.2896

     occupation numbers 
     1.0000   1.0000   1.0000   1.0000   1.0000   1.0000   1.0000   1.0000
     1.0000   1.0000   1.0000   1.0000   1.0000   1.0000   1.0000   0.0000
[...]
    28.5070  29.8290  32.0663  33.1914  34.4485  35.9036

     occupation numbers 
     1.0000   1.0000   1.0000   1.0000   1.0000   1.0000   1.0000   1.0000
     1.0000   1.0000   1.0000   1.0000   1.0000   1.0000   1.0000   0.0000
     0.0000   0.0000   0.0000   0.0000   0.0000   0.0000   0.0000   0.0000
     0.0000   0.0000   0.0000   0.0000   0.0000   0.0000

          k = 0.3077 0.0888 0.1830 (   940 PWs)   bands (ev):

   -48.0295 -47.9816 -22.0553 -21.9633 -21.8558 -21.8111 -21.7311 -21.6550
     4.8344  11.0341  11.8124  12.9852  14.3704  14.9394  15.7392  17.0074
    17.3012  17.6724  18.0469  18.6779  20.6200  21.4097  22.5924  27.7473
    28.0440  30.1404  31.8816  32.7548  35.0248  35.9997

     occupation numbers 
     1.0000   1.0000   1.0000   1.0000   1.0000   1.0000   1.0000   1.0000
     1.0000   1.0000   1.0000   1.0000   1.0000   1.0000   1.0000   0.0000
     0.0000   0.0000   0.0000   0.0000   0.0000   0.0000   0.0000   0.0000
     0.0000   0.0000   0.0000   0.0000   0.0000   0.0000

          k = 0.3077 0.0888 0.2745 (   930 PWs)   bands (ev):

   -48.0145 -47.9967 -22.0382 -22.0039 -21.8034 -21.7764 -21.7518 -21.6989
     4.8648  11.0363  11.8136  13.0058  14.6653  14.8314  15.4890  16.7869
    17.5432  17.6224  18.0095  18.2281  20.7365  21.7351  23.1430  26.9148
    28.3126  30.3774  31.3280  32.3739  35.7581  36.4329

     occupation numbers 
     1.0000   1.0000   1.0000   1.0000   1.0000   1.0000   1.0000   1.0000
     1.0000   1.0000   1.0000   1.0000   1.0000   1.0000   1.0000   0.0000
     0.0000   0.0000   0.0000   0.0000   0.0000   0.0000   0.0000   0.0000
     0.0000   0.0000   0.0000   0.0000   0.0000   0.0000

          k = 0.3846 0.1332 0.0915 (   935 PWs)   bands (ev):

   -48.0208 -47.9676 -22.0722 -21.9987 -21.9277 -21.8524 -21.7284 -21.6604
     5.2208  10.6374  12.1831  12.8916  13.9000  14.7985  15.8623  17.5241
    17.6420  18.0312  18.3039  19.4253  20.3243  20.9779  22.1083  26.6885
    28.8846  29.7490  31.5817  32.8493  33.8175  35.2394

     occupation numbers 
     1.0000   1.0000   1.0000   1.0000   1.0000   1.0000   1.0000   1.0000
     1.0000   1.0000   1.0000   1.0000   1.0000   1.0000   1.0000   0.0000
     0.0000   0.0000   0.0000   0.0000   0.0000   0.0000   0.0000   0.0000
     0.0000   0.0000   0.0000   0.0000   0.0000   0.0000

          k = 0.3846 0.1332 0.1830 (   929 PWs)   bands (ev):

   -48.0127 -47.9757 -22.0953 -22.0390 -21.8646 -21.8254 -21.7487 -21.6666
     5.2408  10.6479  12.0772  12.9003  14.1735  14.9020  15.8178  17.4532
    17.5605  17.8599  18.2273  18.8227  20.3614  21.3279  22.7198  26.5912
    28.3113  29.8251  31.2320  32.6629  34.7277  35.2857

     occupation numbers 
     1.0000   1.0000   1.0000   1.0000   1.0000   1.0000   1.0000   1.0000
     1.0000   1.0000   1.0000   1.0000   1.0000   1.0000   1.0000   0.0000
     0.0000   0.0000   0.0000   0.0000   0.0000   0.0000   0.0000   0.0000
     0.0000   0.0000   0.0000   0.0000   0.0000   0.0000

          k = 0.3846 0.1332 0.2745 (   934 PWs)   bands (ev):

   -48.0011 -47.9873 -22.0930 -22.0827 -21.8250 -21.7871 -21.7555 -21.6961
     5.2358  10.7791  11.9873  12.9533  14.5108  14.8539  15.6611  16.9300
    17.5652  17.9710  18.1302  18.4058  20.3735  21.8029  23.3882  26.6709
    27.5338  29.8749  30.9767  32.4415  35.4507  35.8410

     occupation numbers 
     1.0000   1.0000   1.0000   1.0000   1.0000   1.0000   1.0000   1.0000
     1.0000   1.0000   1.0000   1.0000   1.0000   1.0000   1.0000   0.0000
     0.0000   0.0000   0.0000   0.0000   0.0000   0.0000   0.0000   0.0000
     0.0000   0.0000   0.0000   0.0000   0.0000   0.0000

          k = 0.4615 0.1776 0.0915 (   929 PWs)   bands (ev):

   -48.0052 -47.9670 -22.1245 -22.0299 -21.9074 -21.8660 -21.7404 -21.6904
     5.5432  10.3311  12.3611  12.7785  13.7681  14.8028  15.9332  17.8994
    18.0233  18.1999  18.6480  19.2928  20.0496  20.6588  22.7084  25.5800
    28.7497  29.5769  31.2787  31.9118  34.2284  35.1603

     occupation numbers 
     1.0000   1.0000   1.0000   1.0000   1.0000   1.0000   1.0000   1.0000
     1.0000   1.0000   1.0000   1.0000   1.0000   1.0000   1.0000   0.0000
     0.0000   0.0000   0.0000   0.0000   0.0000   0.0000   0.0000   0.0000
     0.0000   0.0000   0.0000   0.0000   0.0000   0.0000

          k = 0.4615 0.1776 0.1830 (   924 PWs)   bands (ev):

   -47.9994 -47.9728 -22.1443 -22.0818 -21.8732 -21.8128 -21.7632 -21.6824
     5.5396  10.3354  12.2483  12.8539  14.1096  14.9540  15.9127  17.3988
    17.9033  18.1871  18.4881  18.8964  20.0120  21.2765  22.8242  25.7558
    28.5360  29.4413  30.9104  32.0920  34.8008  35.1193

     occupation numbers 
     1.0000   1.0000   1.0000   1.0000   1.0000   1.0000   1.0000   1.0000
     1.0000   1.0000   1.0000   1.0000   1.0000   1.0000   1.0000   0.0000
     0.0000   0.0000   0.0000   0.0000   0.0000   0.0000   0.0000   0.0000
     0.0000   0.0000   0.0000   0.0000   0.0000   0.0000

          k = 0.4615 0.1776 0.2745 (   926 PWs)   bands (ev):

   -47.9910 -47.9812 -22.1437 -22.1298 -21.8394 -21.8000 -21.7466 -21.6973
     5.5188  10.4204  12.1742  12.9317  14.4904  14.9962  15.8459  16.7973
    17.7860  18.1592  18.3751  18.6951  19.9254  21.8180  23.1553  26.1535
    27.6549  29.3313  30.9824  32.1780  35.1303  35.6600

     occupation numbers 
     1.0000   1.0000   1.0000   1.0000   1.0000   1.0000   1.0000   1.0000
     1.0000   1.0000   1.0000   1.0000   1.0000   1.0000   1.0000   0.0000
     0.0000   0.0000   0.0000   0.0000   0.0000   0.0000   0.0000   0.0000
     0.0000   0.0000   0.0000   0.0000   0.0000   0.0000

          k = 0.3846 0.0444 0.0915 (   936 PWs)   bands (ev):

   -48.0245 -47.9680 -22.0432 -22.0012 -21.9158 -21.8436 -21.7521 -21.6540
     5.1201  10.9726  12.1197  12.7155  14.2202  14.6610  15.5705  17.1389
    17.5314  17.9758  18.3172  19.6724  20.6382  20.8090  22.1434  27.7686
    28.3417  30.0978  30.5534  32.9859  33.7546  35.1220

     occupation numbers 
     1.0000   1.0000   1.0000   1.0000   1.0000   1.0000   1.0000   1.0000
     1.0000   1.0000   1.0000   1.0000   1.0000   1.0000   1.0000   0.0000
     0.0000   0.0000   0.0000   0.0000   0.0000   0.0000   0.0000   0.0000
     0.0000   0.0000   0.0000   0.0000   0.0000   0.0000

          k = 0.3846 0.0444 0.1830 (   935 PWs)   bands (ev):

   -48.0158 -47.9766 -22.0704 -22.0189 -21.8620 -21.8316 -21.7666 -21.6604
     5.1467  11.0625  11.9715  12.5936  14.4783  14.8945  15.5271  16.8979
    17.5930  17.7893  18.3260  18.9713  20.7258  21.0766  22.9425  27.5225
    27.6562  30.0819  30.5043  33.0322  34.1680  36.0611

     occupation numbers 
     1.0000   1.0000   1.0000   1.0000   1.0000   1.0000   1.0000   1.0000
     1.0000   1.0000   1.0000   1.0000   1.0000   1.0000   1.0000   0.0000
     0.0000   0.0000   0.0000   0.0000   0.0000   0.0000   0.0000   0.0000
     0.0000   0.0000   0.0000   0.0000   0.0000   0.0000

          k = 0.3846 0.0444 0.2745 (   934 PWs)   bands (ev):

   -48.0035 -47.9890 -22.0732 -22.0462 -21.8433 -21.8145 -21.7435 -21.6893
     5.1602  11.2169  11.8170  12.5519  14.6868  15.1217  15.3609  16.6848
    17.4215  17.8464  18.3087  18.5157  20.7865  21.3608  23.6411  26.8246
    27.8361  29.4415  30.6297  32.7625  35.5150  36.6337

     occupation numbers 
     1.0000   1.0000   1.0000   1.0000   1.0000   1.0000   1.0000   1.0000
     1.0000   1.0000   1.0000   1.0000   1.0000   1.0000   1.0000   0.0000
     0.0000   0.0000   0.0000   0.0000   0.0000   0.0000   0.0000   0.0000
     0.0000   0.0000   0.0000   0.0000   0.0000   0.0000

          k = 0.4615 0.0888 0.0915 (   929 PWs)   bands (ev):

   -48.0073 -47.9669 -22.0845 -22.0239 -21.9117 -21.8696 -21.7719 -21.6838
     5.4813  10.6354  12.3637  12.5165  14.1158  14.6817  15.5336  17.6519
    17.8996  18.0251  18.6788  19.5923  20.4433  20.5999  22.5502  26.4802
    28.2944  29.4588  30.5995  32.3471  33.9793  34.7608

     occupation numbers 
     1.0000   1.0000   1.0000   1.0000   1.0000   1.0000   1.0000   1.0000
     1.0000   1.0000   1.0000   1.0000   1.0000   1.0000   1.0000   0.0000
     0.0000   0.0000   0.0000   0.0000   0.0000   0.0000   0.0000   0.0000
     0.0000   0.0000   0.0000   0.0000   0.0000   0.0000

          k = 0.4615 0.0888 0.1830 (   927 PWs)   bands (ev):

   -48.0012 -47.9731 -22.1041 -22.0649 -21.8996 -21.8219 -21.7804 -21.6735
     5.4885  10.6732  12.2455  12.4574  14.4424  14.8916  15.5372  17.3877
    17.5345  18.1634  18.6550  18.9942  20.5222  20.9369  22.9817  26.4282
    27.6118  29.6839  30.4232  32.7847  34.3506  35.4736

     occupation numbers 
     1.0000   1.0000   1.0000   1.0000   1.0000   1.0000   1.0000   1.0000
     1.0000   1.0000   1.0000   1.0000   1.0000   1.0000   1.0000   0.0000
     0.0000   0.0000   0.0000   0.0000   0.0000   0.0000   0.0000   0.0000
     0.0000   0.0000   0.0000   0.0000   0.0000   0.0000

          k = 0.4615 0.0888 0.2745 (   927 PWs)   bands (ev):

   -47.9923 -47.9819 -22.1070 -22.1029 -21.8762 -21.8394 -21.7319 -21.6863
     5.4814  10.7849  12.1342  12.4378  14.7288  15.0666  15.5515  16.7616
    17.5257  18.2635  18.4297  18.7450  20.4283  21.3741  23.5019  26.2677
    27.4543  28.9797  30.7118  32.7995  35.4813  36.2437

     occupation numbers 
     1.0000   1.0000   1.0000   1.0000   1.0000   1.0000   1.0000   1.0000
     1.0000   1.0000   1.0000   1.0000   1.0000   1.0000   1.0000   0.0000
     0.0000   0.0000   0.0000   0.0000   0.0000   0.0000   0.0000   0.0000
     0.0000   0.0000   0.0000   0.0000   0.0000   0.0000

          k = 0.5385 0.1332 0.0915 (   928 PWs)   bands (ev):

   -47.9957 -47.9682 -22.1222 -22.0254 -21.9299 -21.8473 -21.7865 -21.7102
     5.6836  10.4995  12.3636  12.4928  14.0455  14.7349  15.5882  17.7403
    18.1279  18.2907  18.9729  19.2229  20.2027  20.5259  23.3895  25.4247
    28.1782  29.0062  30.7386  31.6676  34.1133  35.0908

     occupation numbers 
     1.0000   1.0000   1.0000   1.0000   1.0000   1.0000   1.0000   1.0000
     1.0000   1.0000   1.0000   1.0000   1.0000   1.0000   1.0000   0.0000
     0.0000   0.0000   0.0000   0.0000   0.0000   0.0000   0.0000   0.0000
     0.0000   0.0000   0.0000   0.0000   0.0000   0.0000

          k = 0.5385 0.1332 0.1830 (   930 PWs)   bands (ev):

   -47.9915 -47.9724 -22.1384 -22.0761 -21.9224 -21.8198 -21.7758 -21.6876
     5.6813  10.5002  12.2963  12.4439  14.4171  14.9096  15.6581  17.1901
    17.9510  18.4181  18.7101  19.0517  20.2503  20.9542  23.1326  25.7382
    27.5866  29.2462  30.7360  32.3446  34.1855  35.5417

     occupation numbers 
     1.0000   1.0000   1.0000   1.0000   1.0000   1.0000   1.0000   1.0000
     1.0000   1.0000   1.0000   1.0000   1.0000   1.0000   1.0000   0.0000
     0.0000   0.0000   0.0000   0.0000   0.0000   0.0000   0.0000   0.0000
     0.0000   0.0000   0.0000   0.0000   0.0000   0.0000

          k = 0.5385 0.1332 0.2745 (   926 PWs)   bands (ev):

   -47.9855 -47.9784 -22.1398 -22.1212 -21.8939 -21.8549 -21.7212 -21.6880
     5.6728  10.5375  12.2537  12.3963  14.8080  15.0274  15.7945  16.5718
    17.8762  18.3299  18.5528  19.0450  20.0837  21.4021  23.1212  25.9088
    27.5038  28.6560  31.0990  32.4274  35.0777  36.1522

     occupation numbers 
     1.0000   1.0000   1.0000   1.0000   1.0000   1.0000   1.0000   1.0000
     1.0000   1.0000   1.0000   1.0000   1.0000   1.0000   1.0000   0.0000
     0.0000   0.0000   0.0000   0.0000   0.0000   0.0000   0.0000   0.0000
     0.0000   0.0000   0.0000   0.0000   0.0000   0.0000

          k = 0.5385 0.0444 0.0915 (   933 PWs)   bands (ev):

   -47.9940 -47.9685 -22.0851 -22.0280 -21.9344 -21.8540 -21.8174 -21.7144
     5.6912  10.8077  12.0149  12.5735  14.3385  14.6707  15.1998  17.7992
    17.9120  18.2229  18.9596  19.3212  19.9949  21.0913  23.3892  26.2993
    26.9806  29.1592  30.1268  32.4307  34.0197  34.3032

     occupation numbers 
     1.0000   1.0000   1.0000   1.0000   1.0000   1.0000   1.0000   1.0000
     1.0000   1.0000   1.0000   1.0000   1.0000   1.0000   1.0000   0.0000
     0.0000   0.0000   0.0000   0.0000   0.0000   0.0000   0.0000   0.0000
     0.0000   0.0000   0.0000   0.0000   0.0000   0.0000

          k = 0.5385 0.0444 0.1830 (   932 PWs)   bands (ev):

   -47.9901 -47.9724 -22.0932 -22.0703 -21.9517 -21.8657 -21.7639 -21.6870
     5.6985  10.8352  11.9337  12.4187  14.7539  14.8457  15.2729  17.3488
    17.6337  18.3922  18.9620  19.0363  20.4195  20.9596  23.3812  25.9610
    26.5803  29.9405  30.2129  32.9766  33.7872  34.9437

     occupation numbers 
     1.0000   1.0000   1.0000   1.0000   1.0000   1.0000   1.0000   1.0000
     1.0000   1.0000   1.0000   1.0000   1.0000   1.0000   1.0000   0.0000
     0.0000   0.0000   0.0000   0.0000   0.0000   0.0000   0.0000   0.0000
     0.0000   0.0000   0.0000   0.0000   0.0000   0.0000

          k = 0.5385 0.0444 0.2745 (   929 PWs)   bands (ev):

   -47.9845 -47.9779 -22.1012 -22.1003 -21.9360 -21.9006 -21.7105 -21.6822
     5.7006  10.8929  11.8444  12.3240  14.9938  15.1454  15.3708  16.8063
    17.5540  18.3972  18.7019  19.1328  20.6080  20.9737  23.4892  25.2437
    27.1102  29.4441  30.5967  32.7407  35.2141  36.3073

     occupation numbers 
     1.0000   1.0000   1.0000   1.0000   1.0000   1.0000   1.0000   1.0000
     1.0000   1.0000   1.0000   1.0000   1.0000   1.0000   1.0000   0.0000
     0.0000   0.0000   0.0000   0.0000   0.0000   0.0000   0.0000   0.0000
     0.0000   0.0000   0.0000   0.0000   0.0000   0.0000

     highest occupied, lowest unoccupied level (ev):    16.3423   15.8893

!    total energy              =    -308.69680026 Ry
     estimated scf accuracy    <          4.9E-11 Ry

     The total energy is the sum of the following terms:
     one-electron contribution =     -93.71868102 Ry
     hartree contribution      =      61.81040285 Ry
     xc contribution           =     -43.90061428 Ry
     ewald contribution        =    -226.71183035 Ry
     one-center paw contrib.   =      -6.17607745 Ry
      -> PAW hartree energy AE =       8.11835446 Ry
      -> PAW hartree energy PS =      -8.10929150 Ry
      -> PAW xc energy AE      =     -10.34744349 Ry
      -> PAW xc energy PS      =       4.16230309 Ry
      -> total E_H with PAW    =      61.81946581 Ry
      -> total E_XC with PAW   =     -50.08575469 Ry

     convergence has been achieved in  10 iterations

     negative rho (up, down):  2.467E-03 0.000E+00

     Forces acting on atoms (cartesian axes, Ry/au):

     atom    1 type  2   force =    -0.00000000    0.00000000    0.00680595
     atom    2 type  2   force =     0.00000000    0.00000000   -0.00680595
     atom    3 type  1   force =     0.00000000    0.00000000    0.00000000
     The non-local contrib.  to forces
     atom    1 type  2   force =    -0.00000000    0.00000000    0.06934154
     atom    2 type  2   force =     0.00000000    0.00000000   -0.06934154
     atom    3 type  1   force =     0.00000000    0.00000000    0.00000000
     The ionic contribution  to forces
     atom    1 type  2   force =     0.00000000   -0.00000000   -7.45609022
     atom    2 type  2   force =    -0.00000000    0.00000000    7.45609022
     atom    3 type  1   force =     0.00000000   -0.00000000    0.00000000
     The local contribution  to forces
     atom    1 type  2   force =    -0.00000000   -0.00000003    7.39269760
     atom    2 type  2   force =     0.00000000    0.00000003   -7.39269760
     atom    3 type  1   force =     0.00000000   -0.00000000    0.00000000
     The core correction contribution to forces
     atom    1 type  2   force =     0.00000000    0.00000000    0.00084813
     atom    2 type  2   force =     0.00000000   -0.00000000   -0.00084813
     atom    3 type  1   force =    -0.00000000   -0.00000000   -0.00000000
     The Hubbard contrib.    to forces
     atom    1 type  2   force =     0.00000000    0.00000000    0.00000000
     atom    2 type  2   force =     0.00000000    0.00000000    0.00000000
     atom    3 type  1   force =     0.00000000    0.00000000    0.00000000
     The SCF correction term to forces
     atom    1 type  2   force =     0.00000000   -0.00000000    0.00000891
     atom    2 type  2   force =    -0.00000000    0.00000000   -0.00000891
     atom    3 type  1   force =    -0.00000000    0.00000000    0.00000000

     Total force =     0.009625     Total SCF correction =     0.000013

     Writing output data file ./outs/v2c.save/

     init_run     :      8.89s CPU      9.34s WALL (       1 calls)
     electrons    :    260.30s CPU    272.02s WALL (       1 calls)
     forces       :      3.25s CPU      3.47s WALL (       1 calls)

     Called by init_run:
     wfcinit      :      7.70s CPU      7.96s WALL (       1 calls)
     wfcinit:atom :      0.08s CPU      0.08s WALL (     126 calls)
     wfcinit:wfcr :      7.44s CPU      7.67s WALL (     126 calls)
     potinit      :      0.20s CPU      0.24s WALL (       1 calls)
     hinit0       :      0.81s CPU      0.87s WALL (       1 calls)

     Called by electrons:
     c_bands      :    227.98s CPU    235.81s WALL (      10 calls)
     sum_band     :     29.20s CPU     31.63s WALL (      10 calls)
     v_of_rho     :      0.61s CPU      0.68s WALL (      11 calls)
     v_h          :      0.03s CPU      0.03s WALL (      11 calls)
     v_xc         :      0.64s CPU      0.70s WALL (      12 calls)
     newd         :      1.69s CPU      2.86s WALL (      11 calls)
     PAW_pot      :      0.92s CPU      0.95s WALL (      11 calls)
     mix_rho      :      0.09s CPU      0.08s WALL (      10 calls)

     Called by c_bands:
     init_us_2    :      2.30s CPU      2.27s WALL (    2772 calls)
     cegterg      :    220.89s CPU    227.55s WALL (    1260 calls)

     Called by sum_band:
     sum_band:wei :      0.00s CPU      0.00s WALL (      10 calls)
     sum_band:loo :     27.44s CPU     28.39s WALL (      10 calls)
     sum_band:buf :      0.09s CPU      0.15s WALL (    1260 calls)
     sum_band:ini :      1.25s CPU      0.99s WALL (    1260 calls)
     sum_band:cal :      6.95s CPU      7.37s WALL (    1260 calls)
     sum_band:bec :      0.53s CPU      0.55s WALL (    1260 calls)
     addusdens    :      1.73s CPU      3.17s WALL (      10 calls)
     addusd:skk   :      0.02s CPU      0.01s WALL (      20 calls)
     addusd:dgemm :      0.53s CPU      1.81s WALL (      20 calls)
     addusd:qvan2 :      1.02s CPU      1.07s WALL (      20 calls)

     Called by *egterg:
     cdiaghg      :     10.94s CPU     11.40s WALL (    3809 calls)
     cegterg:over :     23.02s CPU     23.64s WALL (    2549 calls)
     cegterg:upda :     13.56s CPU     13.63s WALL (    2549 calls)
     cegterg:last :     30.31s CPU     31.02s WALL (    2098 calls)
     h_psi        :    118.33s CPU    122.11s WALL (    3935 calls)
     s_psi        :     18.84s CPU     19.33s WALL (    3935 calls)
     g_psi        :      0.53s CPU      0.72s WALL (    2549 calls)

     Called by h_psi:
     h_psi:calbec :     17.89s CPU     17.82s WALL (    3935 calls)
     vloc_psi     :     81.48s CPU     84.21s WALL (    3935 calls)
     add_vuspsi   :     18.58s CPU     19.55s WALL (    3935 calls)

     General routines
     calbec       :     27.36s CPU     27.81s WALL (    5699 calls)
     fft          :      0.38s CPU      0.41s WALL (     152 calls)
     ffts         :      0.02s CPU      0.04s WALL (      21 calls)
     fftw         :     84.66s CPU     86.60s WALL (  207840 calls)
     interpolate  :      0.06s CPU      0.06s WALL (      11 calls)

     Parallel routines

     PAW routines
     PAW_pot      :      0.92s CPU      0.95s WALL (      11 calls)
     PAW_symme    :      0.00s CPU      0.00s WALL (      21 calls)

     PWSCF        :   4m33.02s CPU   4m46.07s WALL


   This run was terminated on:  22:38:13  31May2024            

=------------------------------------------------------------------------------=
   JOB DONE.
=------------------------------------------------------------------------------=
