
     Program PWSCF v.6.7MaX starts on 24May2024 at 14:11:11 

     This program is part of the open-source Quantum ESPRESSO suite
     for quantum simulation of materials; please cite
         "P. Giannozzi et al., J. Phys.:Condens. Matter 21 395502 (2009);
         "P. Giannozzi et al., J. Phys.:Condens. Matter 29 465901 (2017);
          URL http://www.quantum-espresso.org", 
     in publications or presentations arising from this work. More details at
     http://www.quantum-espresso.org/quote

     Parallel version (MPI), running on     1 processors

     MPI processes distributed on     1 nodes
     Waiting for input...
     Reading input from standard input

     Current dimensions of program PWSCF are:
     Max number of different atomic species (ntypx) = 10
     Max number of k-points (npk) =  40000
     Max angular momentum in pseudopotentials (lmaxx) =  3
     file C.pbe-n-kjpaw_psl.1.0.0.UPF: wavefunction(s)  2S 2P renormalized

     Subspace diagonalization in iterative solution of the eigenvalue problem:
     a serial algorithm will be used

     Message from routine setup:
     using ibrav=0 with symmetry is DISCOURAGED, use correct ibrav instead

     G-vector sticks info
     --------------------
     sticks:   dense  smooth     PW     G-vecs:    dense   smooth      PW
     Sum         745     367    121                25371     8971    1533



     bravais-lattice index     =            0
     lattice parameter (alat)  =       5.4472  a.u.
     unit-cell volume          =     218.5677 (a.u.)^3
     number of atoms/cell      =            3
     number of atomic types    =            2
     number of electrons       =        30.00
     number of Kohn-Sham states=           19
     kinetic-energy cutoff     =      45.0000  Ry
     charge density cutoff     =     360.0000  Ry
     scf convergence threshold =      6.0E-10
     mixing beta               =       0.4000
     number of iterations used =            8  plain     mixing
     energy convergence thresh.=      1.0E-05
     force convergence thresh. =      1.0E-04
     press convergence thresh. =      5.0E-01
     Exchange-correlation=  SLA  PW   PBX  PBC
                           (   1   4   3   4   0   0   0)
     nstep                     =           50


     celldm(1)=   5.447159  celldm(2)=   0.000000  celldm(3)=   0.000000
     celldm(4)=   0.000000  celldm(5)=   0.000000  celldm(6)=   0.000000

     crystal axes: (cart. coord. in units of alat)
               a(1) = (  -0.500000  -0.866025  -0.000000 )  
               a(2) = (  -0.500000   0.866025   0.000000 )  
               a(3) = (   0.000000   0.000000  -1.561512 )  

     reciprocal axes: (cart. coord. in units 2 pi/alat)
               b(1) = ( -1.000000 -0.577350 -0.000000 )  
               b(2) = ( -1.000000  0.577350  0.000000 )  
               b(3) = (  0.000000  0.000000 -0.640405 )  


     PseudoPot. # 1 for C  read from file:
     /usr/share/espresso/pseudo/C.pbe-n-kjpaw_psl.1.0.0.UPF
     MD5 check sum: 5d2aebdfa2cae82b50a7e79e9516da0f
     Pseudo is Projector augmented-wave + core cor, Zval =  4.0
     Generated using "atomic" code by A. Dal Corso  v.5.1
     Shape of augmentation charge: PSQ
     Using radial grid of 1073 points,  4 beta functions with: 
                l(1) =   0
                l(2) =   0
                l(3) =   1
                l(4) =   1
     Q(r) pseudized with 0 coefficients 


     PseudoPot. # 2 for V  read from file:
     /usr/share/espresso/pseudo/v_pbe_v1.4.uspp.F.UPF
     MD5 check sum: 22b79981416ebb76fdaf5b1b8640f6fb
     Pseudo is Ultrasoft + core correction, Zval = 13.0
     Generated by new atomic code, or converted to UPF format
     Using radial grid of  853 points,  6 beta functions with: 
                l(1) =   0
                l(2) =   0
                l(3) =   1
                l(4) =   1
                l(5) =   2
                l(6) =   2
     Q(r) pseudized with  8 coefficients,  rinner =    1.100   1.100   1.100
                                                       1.100   1.100

     atomic species   valence    mass     pseudopotential
        C              4.00    12.01070     C ( 1.00)
        V             13.00    50.94150     V ( 1.00)

     12 Sym. Ops., with inversion, found


                                    s                        frac. trans.

      isym =  1     identity                                     

 cryst.   s( 1) = (     1          0          0      )
                  (     0          1          0      )
                  (     0          0          1      )

 cart.    s( 1) = (  1.0000000  0.0000000  0.0000000 )
                  (  0.0000000  1.0000000  0.0000000 )
                  (  0.0000000  0.0000000  1.0000000 )


      isym =  2     180 deg rotation - cart. axis [1,0,0]        

 cryst.   s( 2) = (     0          1          0      )
                  (     1          0          0      )
                  (     0          0         -1      )

 cart.    s( 2) = (  1.0000000  0.0000000  0.0000000 )
                  (  0.0000000 -1.0000000  0.0000000 )
                  (  0.0000000  0.0000000 -1.0000000 )


      isym =  3     120 deg rotation - cryst. axis [0,0,1]       

 cryst.   s( 3) = (    -1         -1          0      )
                  (     1          0          0      )
                  (     0          0          1      )

 cart.    s( 3) = ( -0.5000000 -0.8660254  0.0000000 )
                  (  0.8660254 -0.5000000  0.0000000 )
                  (  0.0000000  0.0000000  1.0000000 )


      isym =  4     120 deg rotation - cryst. axis [0,0,-1]      

 cryst.   s( 4) = (     0          1          0      )
                  (    -1         -1          0      )
                  (     0          0          1      )

 cart.    s( 4) = ( -0.5000000  0.8660254  0.0000000 )
                  ( -0.8660254 -0.5000000  0.0000000 )
                  (  0.0000000  0.0000000  1.0000000 )


      isym =  5     180 deg rotation - cryst. axis [0,1,0]       

 cryst.   s( 5) = (    -1         -1          0      )
                  (     0          1          0      )
                  (     0          0         -1      )

 cart.    s( 5) = ( -0.5000000 -0.8660254  0.0000000 )
                  ( -0.8660254  0.5000000  0.0000000 )
                  (  0.0000000  0.0000000 -1.0000000 )


      isym =  6     180 deg rotation - cryst. axis [1,1,0]       

 cryst.   s( 6) = (     1          0          0      )
                  (    -1         -1          0      )
                  (     0          0         -1      )

 cart.    s( 6) = ( -0.5000000  0.8660254  0.0000000 )
                  (  0.8660254  0.5000000  0.0000000 )
                  (  0.0000000  0.0000000 -1.0000000 )


      isym =  7     inversion                                    

 cryst.   s( 7) = (    -1          0          0      )
                  (     0         -1          0      )
                  (     0          0         -1      )

 cart.    s( 7) = ( -1.0000000  0.0000000  0.0000000 )
                  (  0.0000000 -1.0000000  0.0000000 )
                  (  0.0000000  0.0000000 -1.0000000 )


      isym =  8     inv. 180 deg rotation - cart. axis [1,0,0]   

 cryst.   s( 8) = (     0         -1          0      )
                  (    -1          0          0      )
                  (     0          0          1      )

 cart.    s( 8) = ( -1.0000000  0.0000000  0.0000000 )
                  (  0.0000000  1.0000000  0.0000000 )
                  (  0.0000000  0.0000000  1.0000000 )


      isym =  9     inv. 120 deg rotation - cryst. axis [0,0,1]  

 cryst.   s( 9) = (     1          1          0      )
                  (    -1          0          0      )
                  (     0          0         -1      )

 cart.    s( 9) = (  0.5000000  0.8660254  0.0000000 )
                  ( -0.8660254  0.5000000  0.0000000 )
                  (  0.0000000  0.0000000 -1.0000000 )


      isym = 10     inv. 120 deg rotation - cryst. axis [0,0,-1] 

 cryst.   s(10) = (     0         -1          0      )
                  (     1          1          0      )
                  (     0          0         -1      )

 cart.    s(10) = (  0.5000000 -0.8660254  0.0000000 )
                  (  0.8660254  0.5000000  0.0000000 )
                  (  0.0000000  0.0000000 -1.0000000 )


      isym = 11     inv. 180 deg rotation - cryst. axis [0,1,0]  

 cryst.   s(11) = (     1          1          0      )
                  (     0         -1          0      )
                  (     0          0          1      )

 cart.    s(11) = (  0.5000000  0.8660254  0.0000000 )
                  (  0.8660254 -0.5000000  0.0000000 )
                  (  0.0000000  0.0000000  1.0000000 )


      isym = 12     inv. 180 deg rotation - cryst. axis [1,1,0]  

 cryst.   s(12) = (    -1          0          0      )
                  (     1          1          0      )
                  (     0          0          1      )

 cart.    s(12) = (  0.5000000 -0.8660254  0.0000000 )
                  ( -0.8660254 -0.5000000  0.0000000 )
                  (  0.0000000  0.0000000  1.0000000 )


   Cartesian axes

     site n.     atom                  positions (alat units)
         1           V   tau(   1) = (  -0.5000000   0.2886751  -0.3984485  )
         2           V   tau(   2) = (  -0.5000000  -0.2886751  -1.1630630  )
         3           C   tau(   3) = (   0.0000000   0.0000000   0.0000000  )

   Crystallographic axes

     site n.     atom                  positions (cryst. coord.)
         1           V   tau(   1) = (  0.3333333  0.6666667  0.2551685  )
         2           V   tau(   2) = (  0.6666667  0.3333333  0.7448315  )
         3           C   tau(   3) = ( -0.0000000  0.0000000  0.0000000  )

     number of k points=   126  Marzari-Vanderbilt smearing, width (Ry)=  0.0147
                       cart. coord. in units 2pi/alat
        k(    1) = (   0.0000000   0.0000000   0.0000000), wk =   0.0016906
        k(    2) = (   0.0000000   0.0000000  -0.0914864), wk =   0.0033812
        k(    3) = (   0.0000000   0.0000000  -0.1829729), wk =   0.0033812
        k(    4) = (   0.0000000   0.0000000  -0.2744593), wk =   0.0033812
        k(    5) = (  -0.0769231   0.0444116   0.0000000), wk =   0.0101437
        k(    6) = (  -0.0769231   0.0444116  -0.0914864), wk =   0.0101437
        k(    7) = (  -0.0769231   0.0444116  -0.1829729), wk =   0.0101437
        k(    8) = (  -0.0769231   0.0444116  -0.2744593), wk =   0.0101437
        k(    9) = (  -0.1538462   0.0888231   0.0000000), wk =   0.0101437
        k(   10) = (  -0.1538462   0.0888231  -0.0914864), wk =   0.0101437
        k(   11) = (  -0.1538462   0.0888231  -0.1829729), wk =   0.0101437
        k(   12) = (  -0.1538462   0.0888231  -0.2744593), wk =   0.0101437
        k(   13) = (  -0.2307692   0.1332347   0.0000000), wk =   0.0101437
        k(   14) = (  -0.2307692   0.1332347  -0.0914864), wk =   0.0101437
        k(   15) = (  -0.2307692   0.1332347  -0.1829729), wk =   0.0101437
        k(   16) = (  -0.2307692   0.1332347  -0.2744593), wk =   0.0101437
        k(   17) = (  -0.3076923   0.1776462   0.0000000), wk =   0.0101437
        k(   18) = (  -0.3076923   0.1776462  -0.0914864), wk =   0.0101437
        k(   19) = (  -0.3076923   0.1776462  -0.1829729), wk =   0.0101437
        k(   20) = (  -0.3076923   0.1776462  -0.2744593), wk =   0.0101437
        k(   21) = (  -0.3846154   0.2220578   0.0000000), wk =   0.0101437
        k(   22) = (  -0.3846154   0.2220578  -0.0914864), wk =   0.0101437
        k(   23) = (  -0.3846154   0.2220578  -0.1829729), wk =   0.0101437
        k(   24) = (  -0.3846154   0.2220578  -0.2744593), wk =   0.0101437
        k(   25) = (  -0.4615385   0.2664694   0.0000000), wk =   0.0101437
        k(   26) = (  -0.4615385   0.2664694  -0.0914864), wk =   0.0101437
        k(   27) = (  -0.4615385   0.2664694  -0.1829729), wk =   0.0101437
        k(   28) = (  -0.4615385   0.2664694  -0.2744593), wk =   0.0101437
        k(   29) = (  -0.1538462   0.0000000   0.0000000), wk =   0.0101437
        k(   30) = (  -0.1538462   0.0000000  -0.0914864), wk =   0.0202874
        k(   31) = (  -0.1538462   0.0000000  -0.1829729), wk =   0.0202874
        k(   32) = (  -0.1538462   0.0000000  -0.2744593), wk =   0.0202874
        k(   33) = (  -0.2307692   0.0444116   0.0000000), wk =   0.0202874
        k(   34) = (  -0.2307692   0.0444116  -0.0914864), wk =   0.0202874
        k(   35) = (  -0.2307692   0.0444116  -0.1829729), wk =   0.0202874
        k(   36) = (  -0.2307692   0.0444116  -0.2744593), wk =   0.0202874
        k(   37) = (  -0.3076923   0.0888231   0.0000000), wk =   0.0202874
        k(   38) = (  -0.3076923   0.0888231  -0.0914864), wk =   0.0202874
        k(   39) = (  -0.3076923   0.0888231  -0.1829729), wk =   0.0202874
        k(   40) = (  -0.3076923   0.0888231  -0.2744593), wk =   0.0202874
        k(   41) = (  -0.3846154   0.1332347   0.0000000), wk =   0.0202874
        k(   42) = (  -0.3846154   0.1332347  -0.0914864), wk =   0.0202874
        k(   43) = (  -0.3846154   0.1332347  -0.1829729), wk =   0.0202874
        k(   44) = (  -0.3846154   0.1332347  -0.2744593), wk =   0.0202874
        k(   45) = (  -0.4615385   0.1776462   0.0000000), wk =   0.0202874
        k(   46) = (  -0.4615385   0.1776462  -0.0914864), wk =   0.0202874
        k(   47) = (  -0.4615385   0.1776462  -0.1829729), wk =   0.0202874
        k(   48) = (  -0.4615385   0.1776462  -0.2744593), wk =   0.0202874
        k(   49) = (  -0.5384615   0.2220578   0.0000000), wk =   0.0101437
        k(   50) = (  -0.5384615   0.2220578  -0.0914864), wk =   0.0202874
        k(   51) = (  -0.5384615   0.2220578  -0.1829729), wk =   0.0202874
        k(   52) = (  -0.5384615   0.2220578  -0.2744593), wk =   0.0202874
        k(   53) = (  -0.3076923   0.0000000   0.0000000), wk =   0.0101437
        k(   54) = (  -0.3076923   0.0000000  -0.0914864), wk =   0.0202874
        k(   55) = (  -0.3076923   0.0000000  -0.1829729), wk =   0.0202874
        k(   56) = (  -0.3076923   0.0000000  -0.2744593), wk =   0.0202874
        k(   57) = (  -0.3846154   0.0444116   0.0000000), wk =   0.0202874
        k(   58) = (  -0.3846154   0.0444116  -0.0914864), wk =   0.0202874
        k(   59) = (  -0.3846154   0.0444116  -0.1829729), wk =   0.0202874
        k(   60) = (  -0.3846154   0.0444116  -0.2744593), wk =   0.0202874
        k(   61) = (  -0.4615385   0.0888231   0.0000000), wk =   0.0202874
        k(   62) = (  -0.4615385   0.0888231  -0.0914864), wk =   0.0202874
        k(   63) = (  -0.4615385   0.0888231  -0.1829729), wk =   0.0202874
        k(   64) = (  -0.4615385   0.0888231  -0.2744593), wk =   0.0202874
        k(   65) = (  -0.5384615   0.1332347   0.0000000), wk =   0.0202874
        k(   66) = (  -0.5384615   0.1332347  -0.0914864), wk =   0.0202874
        k(   67) = (  -0.5384615   0.1332347  -0.1829729), wk =   0.0202874
        k(   68) = (  -0.5384615   0.1332347  -0.2744593), wk =   0.0202874
        k(   69) = (  -0.4615385   0.0000000   0.0000000), wk =   0.0101437
        k(   70) = (  -0.4615385   0.0000000  -0.0914864), wk =   0.0202874
        k(   71) = (  -0.4615385   0.0000000  -0.1829729), wk =   0.0202874
        k(   72) = (  -0.4615385   0.0000000  -0.2744593), wk =   0.0202874
        k(   73) = (  -0.5384615   0.0444116   0.0000000), wk =   0.0202874
        k(   74) = (  -0.5384615   0.0444116  -0.0914864), wk =   0.0202874
        k(   75) = (  -0.5384615   0.0444116  -0.1829729), wk =   0.0202874
        k(   76) = (  -0.5384615   0.0444116  -0.2744593), wk =   0.0202874
        k(   77) = (  -0.6153846   0.0888231   0.0000000), wk =   0.0101437
        k(   78) = (  -0.6153846   0.0888231  -0.0914864), wk =   0.0202874
        k(   79) = (  -0.6153846   0.0888231  -0.1829729), wk =   0.0202874
        k(   80) = (  -0.6153846   0.0888231  -0.2744593), wk =   0.0202874
        k(   81) = (  -0.6153846   0.0000000   0.0000000), wk =   0.0101437
        k(   82) = (  -0.6153846   0.0000000  -0.0914864), wk =   0.0202874
        k(   83) = (  -0.6153846   0.0000000  -0.1829729), wk =   0.0202874
        k(   84) = (  -0.6153846   0.0000000  -0.2744593), wk =   0.0202874
        k(   85) = (   0.0769231   0.0444116   0.0914864), wk =   0.0101437
        k(   86) = (   0.0769231   0.0444116   0.1829729), wk =   0.0101437
        k(   87) = (   0.0769231   0.0444116   0.2744593), wk =   0.0101437
        k(   88) = (   0.1538462   0.0888231   0.0914864), wk =   0.0101437
        k(   89) = (   0.1538462   0.0888231   0.1829729), wk =   0.0101437
        k(   90) = (   0.1538462   0.0888231   0.2744593), wk =   0.0101437
        k(   91) = (   0.2307692   0.1332347   0.0914864), wk =   0.0101437
        k(   92) = (   0.2307692   0.1332347   0.1829729), wk =   0.0101437
        k(   93) = (   0.2307692   0.1332347   0.2744593), wk =   0.0101437
        k(   94) = (   0.3076923   0.1776462   0.0914864), wk =   0.0101437
        k(   95) = (   0.3076923   0.1776462   0.1829729), wk =   0.0101437
        k(   96) = (   0.3076923   0.1776462   0.2744593), wk =   0.0101437
        k(   97) = (   0.3846154   0.2220578   0.0914864), wk =   0.0101437
        k(   98) = (   0.3846154   0.2220578   0.1829729), wk =   0.0101437
        k(   99) = (   0.3846154   0.2220578   0.2744593), wk =   0.0101437
        k(  100) = (   0.4615385   0.2664694   0.0914864), wk =   0.0101437
        k(  101) = (   0.4615385   0.2664694   0.1829729), wk =   0.0101437
        k(  102) = (   0.4615385   0.2664694   0.2744593), wk =   0.0101437
        k(  103) = (   0.2307692   0.0444116   0.0914864), wk =   0.0202874
        k(  104) = (   0.2307692   0.0444116   0.1829729), wk =   0.0202874
        k(  105) = (   0.2307692   0.0444116   0.2744593), wk =   0.0202874
        k(  106) = (   0.3076923   0.0888231   0.0914864), wk =   0.0202874
        k(  107) = (   0.3076923   0.0888231   0.1829729), wk =   0.0202874
        k(  108) = (   0.3076923   0.0888231   0.2744593), wk =   0.0202874
        k(  109) = (   0.3846154   0.1332347   0.0914864), wk =   0.0202874
        k(  110) = (   0.3846154   0.1332347   0.1829729), wk =   0.0202874
        k(  111) = (   0.3846154   0.1332347   0.2744593), wk =   0.0202874
        k(  112) = (   0.4615385   0.1776462   0.0914864), wk =   0.0202874
        k(  113) = (   0.4615385   0.1776462   0.1829729), wk =   0.0202874
        k(  114) = (   0.4615385   0.1776462   0.2744593), wk =   0.0202874
        k(  115) = (   0.3846154   0.0444116   0.0914864), wk =   0.0202874
        k(  116) = (   0.3846154   0.0444116   0.1829729), wk =   0.0202874
        k(  117) = (   0.3846154   0.0444116   0.2744593), wk =   0.0202874
        k(  118) = (   0.4615385   0.0888231   0.0914864), wk =   0.0202874
        k(  119) = (   0.4615385   0.0888231   0.1829729), wk =   0.0202874
        k(  120) = (   0.4615385   0.0888231   0.2744593), wk =   0.0202874
        k(  121) = (   0.5384615   0.1332347   0.0914864), wk =   0.0202874
        k(  122) = (   0.5384615   0.1332347   0.1829729), wk =   0.0202874
        k(  123) = (   0.5384615   0.1332347   0.2744593), wk =   0.0202874
        k(  124) = (   0.5384615   0.0444116   0.0914864), wk =   0.0202874
        k(  125) = (   0.5384615   0.0444116   0.1829729), wk =   0.0202874
        k(  126) = (   0.5384615   0.0444116   0.2744593), wk =   0.0202874

                       cryst. coord.
        k(    1) = (  -0.0000000   0.0000000   0.0000000), wk =   0.0016906
        k(    2) = (   0.0000000   0.0000000   0.1428571), wk =   0.0033812
        k(    3) = (   0.0000000   0.0000000   0.2857143), wk =   0.0033812
        k(    4) = (   0.0000000   0.0000000   0.4285714), wk =   0.0033812
        k(    5) = (  -0.0000000   0.0769231   0.0000000), wk =   0.0101437
        k(    6) = (  -0.0000000   0.0769231   0.1428571), wk =   0.0101437
        k(    7) = (  -0.0000000   0.0769231   0.2857143), wk =   0.0101437
        k(    8) = (  -0.0000000   0.0769231   0.4285714), wk =   0.0101437
        k(    9) = (  -0.0000000   0.1538462   0.0000000), wk =   0.0101437
        k(   10) = (  -0.0000000   0.1538462   0.1428571), wk =   0.0101437
        k(   11) = (  -0.0000000   0.1538462   0.2857143), wk =   0.0101437
        k(   12) = (  -0.0000000   0.1538462   0.4285714), wk =   0.0101437
        k(   13) = (   0.0000000   0.2307692   0.0000000), wk =   0.0101437
        k(   14) = (   0.0000000   0.2307692   0.1428571), wk =   0.0101437
        k(   15) = (   0.0000000   0.2307692   0.2857143), wk =   0.0101437
        k(   16) = (   0.0000000   0.2307692   0.4285714), wk =   0.0101437
        k(   17) = (  -0.0000000   0.3076923   0.0000000), wk =   0.0101437
        k(   18) = (  -0.0000000   0.3076923   0.1428571), wk =   0.0101437
        k(   19) = (  -0.0000000   0.3076923   0.2857143), wk =   0.0101437
        k(   20) = (  -0.0000000   0.3076923   0.4285714), wk =   0.0101437
        k(   21) = (   0.0000000   0.3846154   0.0000000), wk =   0.0101437
        k(   22) = (   0.0000000   0.3846154   0.1428571), wk =   0.0101437
        k(   23) = (   0.0000000   0.3846154   0.2857143), wk =   0.0101437
        k(   24) = (   0.0000000   0.3846154   0.4285714), wk =   0.0101437
        k(   25) = (   0.0000000   0.4615385   0.0000000), wk =   0.0101437
        k(   26) = (   0.0000000   0.4615385   0.1428571), wk =   0.0101437
        k(   27) = (   0.0000000   0.4615385   0.2857143), wk =   0.0101437
        k(   28) = (   0.0000000   0.4615385   0.4285714), wk =   0.0101437
        k(   29) = (   0.0769231   0.0769231   0.0000000), wk =   0.0101437
        k(   30) = (   0.0769231   0.0769231   0.1428571), wk =   0.0202874
        k(   31) = (   0.0769231   0.0769231   0.2857143), wk =   0.0202874
        k(   32) = (   0.0769231   0.0769231   0.4285714), wk =   0.0202874
        k(   33) = (   0.0769231   0.1538462   0.0000000), wk =   0.0202874
        k(   34) = (   0.0769231   0.1538462   0.1428571), wk =   0.0202874
        k(   35) = (   0.0769231   0.1538462   0.2857143), wk =   0.0202874
        k(   36) = (   0.0769231   0.1538462   0.4285714), wk =   0.0202874
        k(   37) = (   0.0769231   0.2307692   0.0000000), wk =   0.0202874
        k(   38) = (   0.0769231   0.2307692   0.1428571), wk =   0.0202874
        k(   39) = (   0.0769231   0.2307692   0.2857143), wk =   0.0202874
        k(   40) = (   0.0769231   0.2307692   0.4285714), wk =   0.0202874
        k(   41) = (   0.0769231   0.3076923   0.0000000), wk =   0.0202874
        k(   42) = (   0.0769231   0.3076923   0.1428571), wk =   0.0202874
        k(   43) = (   0.0769231   0.3076923   0.2857143), wk =   0.0202874
        k(   44) = (   0.0769231   0.3076923   0.4285714), wk =   0.0202874
        k(   45) = (   0.0769231   0.3846154   0.0000000), wk =   0.0202874
        k(   46) = (   0.0769231   0.3846154   0.1428571), wk =   0.0202874
        k(   47) = (   0.0769231   0.3846154   0.2857143), wk =   0.0202874
        k(   48) = (   0.0769231   0.3846154   0.4285714), wk =   0.0202874
        k(   49) = (   0.0769231   0.4615385   0.0000000), wk =   0.0101437
        k(   50) = (   0.0769231   0.4615385   0.1428571), wk =   0.0202874
        k(   51) = (   0.0769231   0.4615385   0.2857143), wk =   0.0202874
        k(   52) = (   0.0769231   0.4615385   0.4285714), wk =   0.0202874
        k(   53) = (   0.1538462   0.1538462   0.0000000), wk =   0.0101437
        k(   54) = (   0.1538462   0.1538462   0.1428571), wk =   0.0202874
        k(   55) = (   0.1538462   0.1538462   0.2857143), wk =   0.0202874
        k(   56) = (   0.1538462   0.1538462   0.4285714), wk =   0.0202874
        k(   57) = (   0.1538462   0.2307692   0.0000000), wk =   0.0202874
        k(   58) = (   0.1538462   0.2307692   0.1428571), wk =   0.0202874
        k(   59) = (   0.1538462   0.2307692   0.2857143), wk =   0.0202874
        k(   60) = (   0.1538462   0.2307692   0.4285714), wk =   0.0202874
        k(   61) = (   0.1538462   0.3076923   0.0000000), wk =   0.0202874
        k(   62) = (   0.1538462   0.3076923   0.1428571), wk =   0.0202874
        k(   63) = (   0.1538462   0.3076923   0.2857143), wk =   0.0202874
        k(   64) = (   0.1538462   0.3076923   0.4285714), wk =   0.0202874
        k(   65) = (   0.1538462   0.3846154   0.0000000), wk =   0.0202874
        k(   66) = (   0.1538462   0.3846154   0.1428571), wk =   0.0202874
        k(   67) = (   0.1538462   0.3846154   0.2857143), wk =   0.0202874
        k(   68) = (   0.1538462   0.3846154   0.4285714), wk =   0.0202874
        k(   69) = (   0.2307692   0.2307692   0.0000000), wk =   0.0101437
        k(   70) = (   0.2307692   0.2307692   0.1428571), wk =   0.0202874
        k(   71) = (   0.2307692   0.2307692   0.2857143), wk =   0.0202874
        k(   72) = (   0.2307692   0.2307692   0.4285714), wk =   0.0202874
        k(   73) = (   0.2307692   0.3076923   0.0000000), wk =   0.0202874
        k(   74) = (   0.2307692   0.3076923   0.1428571), wk =   0.0202874
        k(   75) = (   0.2307692   0.3076923   0.2857143), wk =   0.0202874
        k(   76) = (   0.2307692   0.3076923   0.4285714), wk =   0.0202874
        k(   77) = (   0.2307692   0.3846154   0.0000000), wk =   0.0101437
        k(   78) = (   0.2307692   0.3846154   0.1428571), wk =   0.0202874
        k(   79) = (   0.2307692   0.3846154   0.2857143), wk =   0.0202874
        k(   80) = (   0.2307692   0.3846154   0.4285714), wk =   0.0202874
        k(   81) = (   0.3076923   0.3076923   0.0000000), wk =   0.0101437
        k(   82) = (   0.3076923   0.3076923   0.1428571), wk =   0.0202874
        k(   83) = (   0.3076923   0.3076923   0.2857143), wk =   0.0202874
        k(   84) = (   0.3076923   0.3076923   0.4285714), wk =   0.0202874
        k(   85) = (  -0.0769231   0.0000000  -0.1428571), wk =   0.0101437
        k(   86) = (  -0.0769231   0.0000000  -0.2857143), wk =   0.0101437
        k(   87) = (  -0.0769231   0.0000000  -0.4285714), wk =   0.0101437
        k(   88) = (  -0.1538462   0.0000000  -0.1428571), wk =   0.0101437
        k(   89) = (  -0.1538462   0.0000000  -0.2857143), wk =   0.0101437
        k(   90) = (  -0.1538462   0.0000000  -0.4285714), wk =   0.0101437
        k(   91) = (  -0.2307692   0.0000000  -0.1428571), wk =   0.0101437
        k(   92) = (  -0.2307692   0.0000000  -0.2857143), wk =   0.0101437
        k(   93) = (  -0.2307692   0.0000000  -0.4285714), wk =   0.0101437
        k(   94) = (  -0.3076923   0.0000000  -0.1428571), wk =   0.0101437
        k(   95) = (  -0.3076923   0.0000000  -0.2857143), wk =   0.0101437
        k(   96) = (  -0.3076923   0.0000000  -0.4285714), wk =   0.0101437
        k(   97) = (  -0.3846154   0.0000000  -0.1428571), wk =   0.0101437
        k(   98) = (  -0.3846154   0.0000000  -0.2857143), wk =   0.0101437
        k(   99) = (  -0.3846154   0.0000000  -0.4285714), wk =   0.0101437
        k(  100) = (  -0.4615385   0.0000000  -0.1428571), wk =   0.0101437
        k(  101) = (  -0.4615385   0.0000000  -0.2857143), wk =   0.0101437
        k(  102) = (  -0.4615385   0.0000000  -0.4285714), wk =   0.0101437
        k(  103) = (  -0.1538462  -0.0769231  -0.1428571), wk =   0.0202874
        k(  104) = (  -0.1538462  -0.0769231  -0.2857143), wk =   0.0202874
        k(  105) = (  -0.1538462  -0.0769231  -0.4285714), wk =   0.0202874
        k(  106) = (  -0.2307692  -0.0769231  -0.1428571), wk =   0.0202874
        k(  107) = (  -0.2307692  -0.0769231  -0.2857143), wk =   0.0202874
        k(  108) = (  -0.2307692  -0.0769231  -0.4285714), wk =   0.0202874
        k(  109) = (  -0.3076923  -0.0769231  -0.1428571), wk =   0.0202874
        k(  110) = (  -0.3076923  -0.0769231  -0.2857143), wk =   0.0202874
        k(  111) = (  -0.3076923  -0.0769231  -0.4285714), wk =   0.0202874
        k(  112) = (  -0.3846154  -0.0769231  -0.1428571), wk =   0.0202874
        k(  113) = (  -0.3846154  -0.0769231  -0.2857143), wk =   0.0202874
        k(  114) = (  -0.3846154  -0.0769231  -0.4285714), wk =   0.0202874
        k(  115) = (  -0.2307692  -0.1538462  -0.1428571), wk =   0.0202874
        k(  116) = (  -0.2307692  -0.1538462  -0.2857143), wk =   0.0202874
        k(  117) = (  -0.2307692  -0.1538462  -0.4285714), wk =   0.0202874
        k(  118) = (  -0.3076923  -0.1538462  -0.1428571), wk =   0.0202874
        k(  119) = (  -0.3076923  -0.1538462  -0.2857143), wk =   0.0202874
        k(  120) = (  -0.3076923  -0.1538462  -0.4285714), wk =   0.0202874
        k(  121) = (  -0.3846154  -0.1538462  -0.1428571), wk =   0.0202874
        k(  122) = (  -0.3846154  -0.1538462  -0.2857143), wk =   0.0202874
        k(  123) = (  -0.3846154  -0.1538462  -0.4285714), wk =   0.0202874
        k(  124) = (  -0.3076923  -0.2307692  -0.1428571), wk =   0.0202874
        k(  125) = (  -0.3076923  -0.2307692  -0.2857143), wk =   0.0202874
        k(  126) = (  -0.3076923  -0.2307692  -0.4285714), wk =   0.0202874

     Dense  grid:    25371 G-vectors     FFT dimensions: (  36,  36,  54)

     Smooth grid:     8971 G-vectors     FFT dimensions: (  24,  24,  40)

     Dynamical RAM for                 wfc:       0.32 MB

     Dynamical RAM for     wfc (w. buffer):      41.02 MB

     Dynamical RAM for           str. fact:       0.77 MB

     Dynamical RAM for           local pot:       0.00 MB

     Dynamical RAM for          nlocal pot:       0.75 MB

     Dynamical RAM for                qrad:       6.09 MB

     Dynamical RAM for          rho,v,vnew:       2.76 MB

     Dynamical RAM for               rhoin:       0.92 MB

     Dynamical RAM for            rho*nmix:       6.19 MB

     Dynamical RAM for           G-vectors:       1.52 MB

     Dynamical RAM for          h,s,v(r/c):       0.07 MB

     Dynamical RAM for          <psi|beta>:       0.01 MB

     Dynamical RAM for                 psi:       0.65 MB

     Dynamical RAM for                hpsi:       0.65 MB

     Dynamical RAM for                spsi:       0.65 MB

     Dynamical RAM for      wfcinit/wfcrot:       0.83 MB

     Dynamical RAM for           addusdens:      72.78 MB

     Dynamical RAM for          addusforce:      73.76 MB

     Dynamical RAM for         addusstress:      77.81 MB

     Estimated static dynamical RAM per process >      63.86 MB

     Estimated max dynamical RAM per process >     141.67 MB

     Check: negative core charge=   -0.000007

     Initial potential from superposition of free atoms

     starting charge   29.99750, renormalised to   30.00000

     negative rho (up, down):  1.226E-03 0.000E+00
     Starting wfcs are   24 randomized atomic wfcs
     Checking if some PAW data can be deallocated... 

     total cpu time spent up to now is       13.4 secs

     Self-consistent Calculation

     iteration #  1     ecut=    45.00 Ry     beta= 0.40
     Davidson diagonalization with overlap
     ethr =  1.00E-02,  avg # of iterations =  2.0

     negative rho (up, down):  1.736E-03 0.000E+00

     total cpu time spent up to now is       36.9 secs

     total energy              =    -308.33309526 Ry
     estimated scf accuracy    <       1.02370034 Ry

     iteration #  2     ecut=    45.00 Ry     beta= 0.40
     Davidson diagonalization with overlap
     ethr =  3.41E-03,  avg # of iterations =  3.9

     negative rho (up, down):  1.606E-03 0.000E+00

     total cpu time spent up to now is       61.6 secs

     total energy              =    -308.60330476 Ry
     estimated scf accuracy    <       0.58094486 Ry

     iteration #  3     ecut=    45.00 Ry     beta= 0.40
     Davidson diagonalization with overlap
     ethr =  1.94E-03,  avg # of iterations =  3.1

     negative rho (up, down):  1.696E-03 0.000E+00

     total cpu time spent up to now is       80.6 secs

     total energy              =    -308.69194326 Ry
     estimated scf accuracy    <       0.00714715 Ry

     iteration #  4     ecut=    45.00 Ry     beta= 0.40
     Davidson diagonalization with overlap
     ethr =  2.38E-05,  avg # of iterations =  5.3

     negative rho (up, down):  1.811E-03 0.000E+00

     total cpu time spent up to now is      106.5 secs

     total energy              =    -308.69488106 Ry
     estimated scf accuracy    <       0.00917823 Ry

     iteration #  5     ecut=    45.00 Ry     beta= 0.40
     Davidson diagonalization with overlap
     ethr =  2.38E-05,  avg # of iterations =  4.1

     negative rho (up, down):  1.845E-03 0.000E+00

     total cpu time spent up to now is      127.3 secs

     total energy              =    -308.69713315 Ry
     estimated scf accuracy    <       0.00324898 Ry

     iteration #  6     ecut=    45.00 Ry     beta= 0.40
     Davidson diagonalization with overlap
     ethr =  1.08E-05,  avg # of iterations =  2.9

     negative rho (up, down):  1.841E-03 0.000E+00

     total cpu time spent up to now is      147.5 secs

     total energy              =    -308.69748727 Ry
     estimated scf accuracy    <       0.00010959 Ry

     iteration #  7     ecut=    45.00 Ry     beta= 0.40
     Davidson diagonalization with overlap
     ethr =  3.65E-07,  avg # of iterations =  5.8

     negative rho (up, down):  1.844E-03 0.000E+00

     total cpu time spent up to now is      175.5 secs

     total energy              =    -308.69753840 Ry
     estimated scf accuracy    <       0.00005839 Ry

     iteration #  8     ecut=    45.00 Ry     beta= 0.40
     Davidson diagonalization with overlap
     ethr =  1.95E-07,  avg # of iterations =  3.0

     negative rho (up, down):  1.844E-03 0.000E+00

     total cpu time spent up to now is      196.5 secs

     total energy              =    -308.69754878 Ry
     estimated scf accuracy    <       0.00000015 Ry

     iteration #  9     ecut=    45.00 Ry     beta= 0.40
     Davidson diagonalization with overlap
     c_bands:  1 eigenvalues not converged
     ethr =  5.00E-10,  avg # of iterations =  6.2

     negative rho (up, down):  1.844E-03 0.000E+00

     total cpu time spent up to now is      232.0 secs

     total energy              =    -308.69754925 Ry
     estimated scf accuracy    <       0.00000139 Ry

     iteration # 10     ecut=    45.00 Ry     beta= 0.40
     Davidson diagonalization with overlap
     ethr =  5.00E-10,  avg # of iterations =  3.1

     negative rho (up, down):  1.844E-03 0.000E+00

     total cpu time spent up to now is      256.2 secs

     total energy              =    -308.69754911 Ry
     estimated scf accuracy    <       0.00000058 Ry

     iteration # 11     ecut=    45.00 Ry     beta= 0.40
     Davidson diagonalization with overlap
     ethr =  5.00E-10,  avg # of iterations =  4.0

     negative rho (up, down):  1.844E-03 0.000E+00

     total cpu time spent up to now is      280.0 secs

     total energy              =    -308.69754918 Ry
     estimated scf accuracy    <          5.8E-09 Ry

     iteration # 12     ecut=    45.00 Ry     beta= 0.40
     Davidson diagonalization with overlap
     ethr =  1.92E-11,  avg # of iterations =  3.9

     negative rho (up, down):  1.844E-03 0.000E+00

     total cpu time spent up to now is      300.8 secs

     total energy              =    -308.69754918 Ry
     estimated scf accuracy    <          1.5E-09 Ry

     iteration # 13     ecut=    45.00 Ry     beta= 0.40
     Davidson diagonalization with overlap
     ethr =  4.98E-12,  avg # of iterations =  3.1

     negative rho (up, down):  1.844E-03 0.000E+00

     total cpu time spent up to now is      321.0 secs

     End of self-consistent calculation

          k = 0.0000 0.0000 0.0000 (  1105 PWs)   bands (ev):

   -48.0958 -47.9851 -22.1896 -21.7541 -21.7541 -21.6732 -21.6732 -21.5840
     3.6469  10.5533  13.3881  13.3881  14.1296  16.2226  16.3444  16.3444
    16.6414  16.6414  17.5719

     occupation numbers 
     1.0000   1.0000   1.0000   1.0000   1.0000   1.0000   1.0000   1.0000
     1.0000   1.0000   1.0000   1.0000   1.0000   0.1310   0.0186   0.0186
     0.0000   0.0000   0.0000

          k = 0.0000 0.0000-0.0915 (  1104 PWs)   bands (ev):

   -48.0904 -47.9906 -22.1607 -21.7503 -21.7503 -21.6770 -21.6770 -21.6150
     3.7087  10.3740  13.3382  13.3382  14.2448  16.1019  16.2632  16.2632
    16.7391  16.7391  17.7190

     occupation numbers 
     1.0000   1.0000   1.0000   1.0000   1.0000   1.0000   1.0000   1.0000
     1.0000   1.0000   1.0000   1.0000   1.0000   0.4619   0.0739   0.0739
     0.0000   0.0000   0.0000

          k = 0.0000 0.0000-0.1830 (  1128 PWs)   bands (ev):

   -48.0753 -48.0060 -22.0790 -21.7396 -21.7396 -21.7014 -21.6878 -21.6878
     3.8551   9.9859  13.2370  13.2370  14.5409  15.8111  16.0418  16.0418
    17.1202  17.1202  17.9326

     occupation numbers 
     1.0000   1.0000   1.0000   1.0000   1.0000   1.0000   1.0000   1.0000
     1.0000   1.0000   1.0000   1.0000   1.0000   1.0799   0.6858   0.6858
     0.0000   0.0000   0.0000

          k = 0.0000 0.0000-0.2745 (  1110 PWs)   bands (ev):

   -48.0536 -48.0278 -21.9597 -21.8244 -21.7253 -21.7253 -21.7021 -21.7021
     3.9816   9.6837  13.1645  13.1645  14.9118  15.4545  15.8903  15.8903
    17.5438  17.5438  17.9715

     occupation numbers 
     1.0000   1.0000   1.0000   1.0000   1.0000   1.0000   1.0000   1.0000
     1.0000   1.0000   1.0000   1.0000   1.0000   1.0003   1.0614   1.0614
     0.0000   0.0000   0.0000

          k =-0.0769 0.0444 0.0000 (  1100 PWs)   bands (ev):

   -48.0915 -47.9836 -22.1785 -21.7761 -21.7622 -21.6943 -21.6749 -21.5882
     3.7482  10.6807  12.9957  13.3936  14.2725  16.0877  16.3155  16.4150
    16.5329  16.5721  17.7259

     occupation numbers 
     1.0000   1.0000   1.0000   1.0000   1.0000   1.0000   1.0000   1.0000
     1.0000   1.0000   1.0000   1.0000   1.0000   0.5138   0.0316   0.0044
     0.0002   0.0001   0.0000

          k =-0.0769 0.0444-0.0915 (  1108 PWs)   bands (ev):

   -48.0862 -47.9889 -22.1513 -21.7730 -21.7566 -21.7003 -21.6805 -21.6146
     3.8057  10.5040  12.9888  13.4060  14.3071  15.9479  16.2240  16.3059
    16.5380  16.8753  17.8199

     occupation numbers 
     1.0000   1.0000   1.0000   1.0000   1.0000   1.0000   1.0000   1.0000
     1.0000   1.0000   1.0000   1.0000   1.0000   0.9740   0.1286   0.0373
     0.0002   0.0000   0.0000

          k =-0.0769 0.0444-0.1830 (  1110 PWs)   bands (ev):

   -48.0714 -48.0039 -22.0745 -21.7636 -21.7438 -21.7333 -21.6934 -21.6721
     3.9428  10.1260  12.9822  13.3200  14.5198  15.7090  15.9884  16.0682
    16.9139  17.2908  17.9487

     occupation numbers 
     1.0000   1.0000   1.0000   1.0000   1.0000   1.0000   1.0000   1.0000
     1.0000   1.0000   1.0000   1.0000   1.0000   1.0368   0.8682   0.5868
     0.0000   0.0000   0.0000

          k =-0.0769 0.0444-0.2745 (  1108 PWs)   bands (ev):

   -48.0503 -48.0252 -21.9633 -21.8379 -21.7377 -21.7277 -21.7095 -21.7080
     4.0611   9.8335  12.9871  13.2128  14.8774  15.3488  15.8056  15.9583
    17.4042  17.6514  17.9337

     occupation numbers 
     1.0000   1.0000   1.0000   1.0000   1.0000   1.0000   1.0000   1.0000
     1.0000   1.0000   1.0000   1.0000   1.0000   1.0000   1.0784   0.9502
     0.0000   0.0000   0.0000

          k =-0.1538 0.0888 0.0000 (  1106 PWs)   bands (ev):

   -48.0791 -47.9795 -22.1466 -21.8369 -21.7835 -21.7522 -21.6806 -21.6015
     4.0346  11.0341  12.2982  13.3790  14.3336  15.5396  16.1423  16.4276
    16.7284  16.7588  18.0106

     occupation numbers 
     1.0000   1.0000   1.0000   1.0000   1.0000   1.0000   1.0000   1.0000
     1.0000   1.0000   1.0000   1.0000   1.0000   1.0023   0.3253   0.0033
     0.0000   0.0000   0.0000

          k =-0.1538 0.0888-0.0915 (  1107 PWs)   bands (ev):

   -48.0742 -47.9845 -22.1255 -21.8314 -21.7764 -21.7604 -21.6878 -21.6213
     4.0780  10.8685  12.3917  13.4522  14.2850  15.5046  16.0644  16.2592
    16.6775  16.9611  18.1016

     occupation numbers 
     1.0000   1.0000   1.0000   1.0000   1.0000   1.0000   1.0000   1.0000
     1.0000   1.0000   1.0000   1.0000   1.0000   1.0011   0.6010   0.0785
     0.0000   0.0000   0.0000

          k =-0.1538 0.0888-0.1830 (  1107 PWs)   bands (ev):

   -48.0606 -47.9983 -22.0658 -21.8212 -21.7875 -21.7607 -21.7037 -21.6674
     4.1878  10.5261  12.5015  13.4040  14.3820  15.4300  15.8329  16.1798
    16.8410  17.2842  18.1635

     occupation numbers 
     1.0000   1.0000   1.0000   1.0000   1.0000   1.0000   1.0000   1.0000
     1.0000   1.0000   1.0000   1.0000   1.0000   1.0002   1.0832   0.2206
     0.0000   0.0000   0.0000

          k =-0.1538 0.0888-0.2745 (  1107 PWs)   bands (ev):

   -48.0410 -48.0179 -21.9819 -21.8790 -21.7646 -21.7402 -21.7242 -21.7189
     4.2848  10.2582  12.5666  13.2823  14.6535  15.3095  15.5041  16.1770
    17.2705  17.6615  17.9668

     occupation numbers 
     1.0000   1.0000   1.0000   1.0000   1.0000   1.0000   1.0000   1.0000
     1.0000   1.0000   1.0000   1.0000   1.0000   1.0000   1.0011   0.2275
     0.0000   0.0000   0.0000

          k =-0.2308 0.1332 0.0000 (  1110 PWs)   bands (ev):

   -48.0609 -47.9744 -22.0979 -21.9225 -21.8319 -21.8118 -21.6904 -21.6244
     4.4549  11.4944  11.6173  13.2929  14.2117  15.0170  15.8982  16.5852
    17.1096  17.1721  18.2652

     occupation numbers 
     1.0000   1.0000   1.0000   1.0000   1.0000   1.0000   1.0000   1.0000
     1.0000   1.0000   1.0000   1.0000   1.0000   1.0000   1.0538   0.0000
     0.0000   0.0000   0.0000

          k =-0.2308 0.1332-0.0915 (  1111 PWs)   bands (ev):

   -48.0566 -47.9787 -22.0931 -21.9054 -21.8405 -21.8038 -21.6986 -21.6384
     4.4743  11.3783  11.7647  13.4045  14.1702  15.0149  15.8013  16.3502
    17.0715  17.1829  18.3065

     occupation numbers 
     1.0000   1.0000   1.0000   1.0000   1.0000   1.0000   1.0000   1.0000
     1.0000   1.0000   1.0000   1.0000   1.0000   1.0000   1.0771   0.0167
     0.0000   0.0000   0.0000

          k =-0.2308 0.1332-0.1830 (  1110 PWs)   bands (ev):

   -48.0448 -47.9907 -22.0696 -21.8956 -21.8413 -21.7854 -21.7172 -21.6726
     4.5438  11.1059  11.9240  13.4223  14.1796  15.0797  15.6896  16.3097
    17.0778  17.2754  18.2736

     occupation numbers 
     1.0000   1.0000   1.0000   1.0000   1.0000   1.0000   1.0000   1.0000
     1.0000   1.0000   1.0000   1.0000   1.0000   1.0000   1.0292   0.0349
     0.0000   0.0000   0.0000

          k =-0.2308 0.1332-0.2745 (  1117 PWs)   bands (ev):

   -48.0278 -48.0078 -22.0282 -21.9458 -21.7825 -21.7604 -21.7423 -21.7241
     4.6132  10.8519  12.0137  13.3295  14.3737  15.1248  15.4090  16.4483
    17.3040  17.5808  18.0680

     occupation numbers 
     1.0000   1.0000   1.0000   1.0000   1.0000   1.0000   1.0000   1.0000
     1.0000   1.0000   1.0000   1.0000   1.0000   1.0000   1.0001   0.0020
     0.0000   0.0000   0.0000

          k =-0.3077 0.1776 0.0000 (  1118 PWs)   bands (ev):

   -48.0402 -47.9704 -22.0417 -22.0103 -21.9142 -21.8405 -21.7021 -21.6564
     4.9272  10.9617  11.9969  13.1440  13.9318  14.7368  15.8102  16.9987
    17.5621  17.6554  18.4480

     occupation numbers 
     1.0000   1.0000   1.0000   1.0000   1.0000   1.0000   1.0000   1.0000
     1.0000   1.0000   1.0000   1.0000   1.0000   1.0000   1.0797   0.0000
     0.0000   0.0000   0.0000

          k =-0.3077 0.1776-0.0915 (  1109 PWs)   bands (ev):

   -48.0367 -47.9739 -22.0851 -21.9557 -21.9176 -21.8319 -21.7107 -21.6644
     4.9185  11.1637  11.8879  13.2610  14.0279  14.6547  15.6643  16.7111
    17.5358  17.5444  18.4672

     occupation numbers 
     1.0000   1.0000   1.0000   1.0000   1.0000   1.0000   1.0000   1.0000
     1.0000   1.0000   1.0000   1.0000   1.0000   1.0000   1.0208   0.0000
     0.0000   0.0000   0.0000

          k =-0.3077 0.1776-0.1830 (  1118 PWs)   bands (ev):

   -48.0271 -47.9835 -22.1040 -21.9769 -21.8574 -21.8115 -21.7315 -21.6847
     4.9446  11.2869  11.7342  13.3475  14.0655  14.7700  15.6262  16.5501
    17.4408  17.4953  18.3919

     occupation numbers 
     1.0000   1.0000   1.0000   1.0000   1.0000   1.0000   1.0000   1.0000
     1.0000   1.0000   1.0000   1.0000   1.0000   1.0000   1.0117   0.0001
     0.0000   0.0000   0.0000

          k =-0.3077 0.1776-0.2745 (  1117 PWs)   bands (ev):

   -48.0134 -47.9973 -22.0924 -22.0251 -21.7831 -21.7798 -21.7601 -21.7260
     4.9869  11.1073  11.7691  13.3247  14.2671  14.8148  15.5552  16.6505
    17.5491  17.5856  18.1590

     occupation numbers 
     1.0000   1.0000   1.0000   1.0000   1.0000   1.0000   1.0000   1.0000
     1.0000   1.0000   1.0000   1.0000   1.0000   1.0000   1.0032   0.0000
     0.0000   0.0000   0.0000

          k =-0.3846 0.2221 0.0000 (  1112 PWs)   bands (ev):

   -48.0210 -47.9690 -22.0908 -21.9812 -21.9766 -21.8634 -21.7124 -21.6939
     5.3457  10.4960  12.2897  12.9961  13.6318  14.6836  15.9122  17.5645
    18.0941  18.0989  18.5666

     occupation numbers 
     1.0000   1.0000   1.0000   1.0000   1.0000   1.0000   1.0000   1.0000
     1.0000   1.0000   1.0000   1.0000   1.0000   1.0000   1.0369   0.0000
     0.0000   0.0000   0.0000

          k =-0.3846 0.2221-0.0915 (  1121 PWs)   bands (ev):

   -48.0185 -47.9716 -22.1232 -22.0019 -21.9218 -21.8549 -21.7211 -21.6951
     5.3185  10.6579  12.2078  13.0968  13.8436  14.5616  15.7720  17.2363
    17.9510  18.0446  18.5843

     occupation numbers 
     1.0000   1.0000   1.0000   1.0000   1.0000   1.0000   1.0000   1.0000
     1.0000   1.0000   1.0000   1.0000   1.0000   1.0000   1.0656   0.0000
     0.0000   0.0000   0.0000

          k =-0.3846 0.2221-0.1830 (  1122 PWs)   bands (ev):

   -48.0113 -47.9788 -22.1507 -22.0474 -21.8425 -21.8332 -21.7431 -21.7005
     5.3114  10.7398  12.1094  13.2262  14.1208  14.5914  15.7225  16.8878
    17.8024  17.9114  18.5471

     occupation numbers 
     1.0000   1.0000   1.0000   1.0000   1.0000   1.0000   1.0000   1.0000
     1.0000   1.0000   1.0000   1.0000   1.0000   1.0000   1.0427   0.0000
     0.0000   0.0000   0.0000

          k =-0.3846 0.2221-0.2745 (  1121 PWs)   bands (ev):

   -48.0010 -47.9890 -22.1492 -22.0956 -21.8026 -21.7740 -21.7685 -21.7270
     5.3296  10.6597  12.0653  13.2795  14.4233  14.6630  15.7110  16.7875
    17.6030  17.9637  18.3231

     occupation numbers 
     1.0000   1.0000   1.0000   1.0000   1.0000   1.0000   1.0000   1.0000
     1.0000   1.0000   1.0000   1.0000   1.0000   1.0000   1.0377   0.0000
     0.0000   0.0000   0.0000

          k =-0.4615 0.2665 0.0000 (  1118 PWs)   bands (ev):

   -48.0085 -47.9699 -22.1329 -22.0184 -21.9334 -21.8761 -21.7248 -21.7184
     5.5962  10.2410  12.3988  12.9075  13.4574  14.7052  16.0582  18.0412
    18.3540  18.6524  18.7181

     occupation numbers 
     1.0000   1.0000   1.0000   1.0000   1.0000   1.0000   1.0000   1.0000
     1.0000   1.0000   1.0000   1.0000   1.0000   1.0000   0.6246   0.0000
     0.0000   0.0000   0.0000

          k =-0.4615 0.2665-0.0915 (  1112 PWs)   bands (ev):

   -48.0066 -47.9718 -22.1535 -22.0404 -21.8962 -21.8680 -21.7267 -21.7186
     5.5753  10.3057  12.3301  12.9806  13.6611  14.6893  15.9806  17.7555
    18.1974  18.6250  18.6311

     occupation numbers 
     1.0000   1.0000   1.0000   1.0000   1.0000   1.0000   1.0000   1.0000
     1.0000   1.0000   1.0000   1.0000   1.0000   1.0000   0.8911   0.0000
     0.0000   0.0000   0.0000

          k =-0.4615 0.2665-0.1830 (  1116 PWs)   bands (ev):

   -48.0012 -47.9771 -22.1779 -22.0906 -21.8460 -21.8272 -21.7491 -21.7114
     5.5546  10.3384  12.2346  13.1221  14.0510  14.7834  15.8943  17.2197
    18.1074  18.1859  18.5543

     occupation numbers 
     1.0000   1.0000   1.0000   1.0000   1.0000   1.0000   1.0000   1.0000
     1.0000   1.0000   1.0000   1.0000   1.0000   1.0000   1.0578   0.0000
     0.0000   0.0000   0.0000

          k =-0.4615 0.2665-0.2745 (  1123 PWs)   bands (ev):

   -47.9936 -47.9848 -22.1787 -22.1395 -21.8144 -21.7810 -21.7625 -21.7252
     5.5496  10.3134  12.1784  13.2302  14.3772  14.9534  15.8173  16.8964
    17.6501  18.2281  18.4782

     occupation numbers 
     1.0000   1.0000   1.0000   1.0000   1.0000   1.0000   1.0000   1.0000
     1.0000   1.0000   1.0000   1.0000   1.0000   1.0000   1.0813   0.0000
     0.0000   0.0000   0.0000

          k =-0.1538 0.0000 0.0000 (  1111 PWs)   bands (ev):

   -48.0831 -47.9808 -22.1570 -21.8126 -21.7864 -21.7257 -21.6821 -21.5970
     3.9421  10.9219  12.5014  13.3744  14.3391  15.6953  16.2418  16.4134
    16.5557  16.7447  17.8909

     occupation numbers 
     1.0000   1.0000   1.0000   1.0000   1.0000   1.0000   1.0000   1.0000
     1.0000   1.0000   1.0000   1.0000   1.0000   1.0313   0.1010   0.0045
     0.0001   0.0000   0.0000

          k =-0.1538 0.0000-0.0915 (  1110 PWs)   bands (ev):

   -48.0781 -47.9858 -22.1332 -21.8061 -21.7831 -21.7365 -21.6867 -21.6169
     3.9930  10.7472  12.5662  13.3240  14.3849  15.6383  16.1671  16.3759
    16.5539  16.9458  17.9740

     occupation numbers 
     1.0000   1.0000   1.0000   1.0000   1.0000   1.0000   1.0000   1.0000
     1.0000   1.0000   1.0000   1.0000   1.0000   1.0142   0.2533   0.0100
     0.0001   0.0000   0.0000

          k =-0.1538 0.0000-0.1830 (  1107 PWs)   bands (ev):

   -48.0641 -48.0000 -22.0667 -21.7987 -21.7813 -21.7551 -21.6997 -21.6646
     4.1126  10.3872  12.6706  13.2375  14.5412  15.4879  15.8445  16.2753
    16.8536  17.3353  18.0525

     occupation numbers 
     1.0000   1.0000   1.0000   1.0000   1.0000   1.0000   1.0000   1.0000
     1.0000   1.0000   1.0000   1.0000   1.0000   1.0007   1.0829   0.0614
     0.0000   0.0000   0.0000

          k =-0.1538 0.0000-0.2745 (  1105 PWs)   bands (ev):

   -48.0440 -48.0202 -21.9725 -21.8676 -21.7548 -21.7436 -21.7193 -21.7114
     4.2144  10.1169  12.7312  13.1783  14.8291  15.2293  15.5966  16.1478
    17.3444  17.6901  17.9166

     occupation numbers 
     1.0000   1.0000   1.0000   1.0000   1.0000   1.0000   1.0000   1.0000
     1.0000   1.0000   1.0000   1.0000   1.0000   1.0000   1.0070   0.3087
     0.0000   0.0000   0.0000

          k =-0.2308 0.0444 0.0000 (  1103 PWs)   bands (ev):

   -48.0678 -47.9762 -22.1166 -21.8800 -21.8366 -21.7702 -21.6946 -21.6152
     4.2956  11.3460  11.8638  13.2886  14.2956  15.1596  15.9857  16.4820
    16.8444  17.1404  18.0972

     occupation numbers 
     1.0000   1.0000   1.0000   1.0000   1.0000   1.0000   1.0000   1.0000
     1.0000   1.0000   1.0000   1.0000   1.0000   1.0000   0.8764   0.0009
     0.0000   0.0000   0.0000

          k =-0.2308 0.0444-0.0915 (  1108 PWs)   bands (ev):

   -48.0633 -47.9808 -22.1028 -21.8705 -21.8348 -21.7751 -21.7018 -21.6292
     4.3286  11.1846  11.9990  13.2818  14.3218  15.1665  16.0451  16.2107
    16.8394  17.2071  18.1603

     occupation numbers 
     1.0000   1.0000   1.0000   1.0000   1.0000   1.0000   1.0000   1.0000
     1.0000   1.0000   1.0000   1.0000   1.0000   1.0000   0.6737   0.1527
     0.0000   0.0000   0.0000

          k =-0.2308 0.0444-0.1830 (  1110 PWs)   bands (ev):

   -48.0507 -47.9934 -22.0622 -21.8698 -21.8238 -21.7777 -21.7182 -21.6651
     4.4148  10.8773  12.1649  13.2010  14.4512  15.1602  15.8362  16.2221
    16.8890  17.4258  18.1429

     occupation numbers 
     1.0000   1.0000   1.0000   1.0000   1.0000   1.0000   1.0000   1.0000
     1.0000   1.0000   1.0000   1.0000   1.0000   1.0000   1.0833   0.1318
     0.0000   0.0000   0.0000

          k =-0.2308 0.0444-0.2745 (  1111 PWs)   bands (ev):

   -48.0328 -48.0115 -22.0043 -21.9206 -21.7782 -21.7644 -21.7372 -21.7140
     4.4917  10.6369  12.2626  13.1317  14.6482  15.2002  15.3785  16.3438
    17.2230  17.7391  17.9037

     occupation numbers 
     1.0000   1.0000   1.0000   1.0000   1.0000   1.0000   1.0000   1.0000
     1.0000   1.0000   1.0000   1.0000   1.0000   1.0000   1.0000   0.0189
     0.0000   0.0000   0.0000

          k =-0.3077 0.0888 0.0000 (  1109 PWs)   bands (ev):

   -48.0483 -47.9717 -22.0627 -21.9671 -21.8974 -21.8167 -21.7081 -21.6429
     4.7424  11.2450  11.8352  13.1389  14.1162  14.7557  15.7702  16.8153
    17.2130  17.6390  18.2800

     occupation numbers 
     1.0000   1.0000   1.0000   1.0000   1.0000   1.0000   1.0000   1.0000
     1.0000   1.0000   1.0000   1.0000   1.0000   1.0000   1.0647   0.0000
     0.0000   0.0000   0.0000

          k =-0.3077 0.0888-0.0915 (  1107 PWs)   bands (ev):

   -48.0445 -47.9755 -22.0771 -21.9386 -21.8958 -21.8158 -21.7173 -21.6508
     4.7497  11.4125  11.7267  13.1475  14.2037  14.7513  15.7423  16.4766
    17.2109  17.6091  18.3257

     occupation numbers 
     1.0000   1.0000   1.0000   1.0000   1.0000   1.0000   1.0000   1.0000
     1.0000   1.0000   1.0000   1.0000   1.0000   1.0000   1.0518   0.0010
     0.0000   0.0000   0.0000

          k =-0.3077 0.0888-0.1830 (  1114 PWs)   bands (ev):

   -48.0340 -47.9861 -22.0801 -21.9467 -21.8532 -21.8065 -21.7371 -21.6731
     4.7945  11.4745  11.6125  13.0774  14.3385  14.8681  15.8206  16.1775
    17.2271  17.6259  18.2453

     occupation numbers 
     1.0000   1.0000   1.0000   1.0000   1.0000   1.0000   1.0000   1.0000
     1.0000   1.0000   1.0000   1.0000   1.0000   1.0000   1.0819   0.2264
     0.0000   0.0000   0.0000

          k =-0.3077 0.0888-0.2745 (  1118 PWs)   bands (ev):

   -48.0189 -48.0012 -22.0598 -21.9907 -21.7948 -21.7845 -21.7535 -21.7143
     4.8446  11.1978  11.7609  13.0363  14.4963  14.9910  15.4891  16.4353
    17.3573  17.7925  17.9631

     occupation numbers 
     1.0000   1.0000   1.0000   1.0000   1.0000   1.0000   1.0000   1.0000
     1.0000   1.0000   1.0000   1.0000   1.0000   1.0000   1.0007   0.0027
     0.0000   0.0000   0.0000

          k =-0.3846 0.1332 0.0000 (  1117 PWs)   bands (ev):

   -48.0282 -47.9692 -22.0538 -21.9989 -21.9573 -21.8549 -21.7210 -21.6787
     5.1885  10.7415  12.2058  12.9631  13.8475  14.6349  15.7272  17.3141
    17.6357  18.1687  18.4166

     occupation numbers 
     1.0000   1.0000   1.0000   1.0000   1.0000   1.0000   1.0000   1.0000
     1.0000   1.0000   1.0000   1.0000   1.0000   1.0000   1.0448   0.0000
     0.0000   0.0000   0.0000

          k =-0.3846 0.1332-0.0915 (  1116 PWs)   bands (ev):

   -48.0252 -47.9721 -22.0956 -21.9813 -21.9270 -21.8495 -21.7318 -21.6793
     5.1717  10.9182  12.1227  12.9986  14.0090  14.5793  15.6460  16.9113
    17.6513  18.0647  18.4873

     occupation numbers 
     1.0000   1.0000   1.0000   1.0000   1.0000   1.0000   1.0000   1.0000
     1.0000   1.0000   1.0000   1.0000   1.0000   1.0000   1.0159   0.0000
     0.0000   0.0000   0.0000

          k =-0.3846 0.1332-0.1830 (  1121 PWs)   bands (ev):

   -48.0171 -47.9803 -22.1226 -22.0173 -21.8594 -21.8243 -21.7544 -21.6864
     5.1796  11.0417  11.9966  12.9723  14.2248  14.7241  15.7433  16.4523
    17.6737  17.9242  18.4019

     occupation numbers 
     1.0000   1.0000   1.0000   1.0000   1.0000   1.0000   1.0000   1.0000
     1.0000   1.0000   1.0000   1.0000   1.0000   1.0000   1.0522   0.0018
     0.0000   0.0000   0.0000

          k =-0.3846 0.1332-0.2745 (  1119 PWs)   bands (ev):

   -48.0055 -47.9919 -22.1194 -22.0621 -21.8178 -21.7945 -21.7559 -21.7145
     5.2065  10.9653  11.9483  12.9678  14.4535  14.8662  15.6966  16.4385
    17.6719  17.9069  18.1344

     occupation numbers 
     1.0000   1.0000   1.0000   1.0000   1.0000   1.0000   1.0000   1.0000
     1.0000   1.0000   1.0000   1.0000   1.0000   1.0000   1.0318   0.0025
     0.0000   0.0000   0.0000

          k =-0.4615 0.1776 0.0000 (  1116 PWs)   bands (ev):

   -48.0118 -47.9695 -22.1117 -22.0011 -21.9453 -21.8796 -21.7305 -21.7157
     5.5241  10.4060  12.3912  12.7961  13.6561  14.6627  15.8471  17.8066
    18.0188  18.5287  18.6981

     occupation numbers 
     1.0000   1.0000   1.0000   1.0000   1.0000   1.0000   1.0000   1.0000
     1.0000   1.0000   1.0000   1.0000   1.0000   1.0000   1.0826   0.0000
     0.0000   0.0000   0.0000

          k =-0.4615 0.1776-0.0915 (  1114 PWs)   bands (ev):

   -48.0097 -47.9716 -22.1351 -22.0224 -21.9088 -21.8664 -21.7437 -21.7072
     5.5005  10.5157  12.3156  12.8676  13.8372  14.6209  15.7831  17.3757
    18.0541  18.4421  18.7608

     occupation numbers 
     1.0000   1.0000   1.0000   1.0000   1.0000   1.0000   1.0000   1.0000
     1.0000   1.0000   1.0000   1.0000   1.0000   1.0000   1.0703   0.0000
     0.0000   0.0000   0.0000

          k =-0.4615 0.1776-0.1830 (  1120 PWs)   bands (ev):

   -48.0038 -47.9774 -22.1606 -22.0695 -21.8705 -21.8138 -21.7679 -21.7002
     5.4871  10.5726  12.2260  12.9162  14.1891  14.7369  15.8243  16.8066
    18.0821  18.2435  18.5332

     occupation numbers 
     1.0000   1.0000   1.0000   1.0000   1.0000   1.0000   1.0000   1.0000
     1.0000   1.0000   1.0000   1.0000   1.0000   1.0000   1.0825   0.0000
     0.0000   0.0000   0.0000

          k =-0.4615 0.1776-0.2745 (  1120 PWs)   bands (ev):

   -47.9955 -47.9857 -22.1614 -22.1166 -21.8359 -21.8039 -21.7492 -21.7147
     5.4939  10.5257  12.1705  12.9448  14.5261  14.9008  15.8888  16.4782
    17.9140  18.0811  18.3629

     occupation numbers 
     1.0000   1.0000   1.0000   1.0000   1.0000   1.0000   1.0000   1.0000
     1.0000   1.0000   1.0000   1.0000   1.0000   1.0000   1.0627   0.0010
     0.0000   0.0000   0.0000

          k =-0.5385 0.2221 0.0000 (  1120 PWs)   bands (ev):

   -48.0049 -47.9705 -22.1328 -22.0170 -21.9202 -21.8882 -21.7347 -21.7339
     5.6500  10.2871  12.4511  12.7128  13.5929  14.6893  15.9306  18.0691
    18.1317  18.6191  19.1816

     occupation numbers 
     1.0000   1.0000   1.0000   1.0000   1.0000   1.0000   1.0000   1.0000
     1.0000   1.0000   1.0000   1.0000   1.0000   1.0000   1.0082   0.0000
     0.0000   0.0000   0.0000

          k =-0.5385 0.2221-0.0915 (  1114 PWs)   bands (ev):

   -48.0032 -47.9722 -22.1487 -22.0410 -21.9051 -21.8649 -21.7483 -21.7182
     5.6430  10.2927  12.3807  12.7693  13.7514  14.7484  15.9261  17.7517
    18.2027  18.4775  18.9419

     occupation numbers 
     1.0000   1.0000   1.0000   1.0000   1.0000   1.0000   1.0000   1.0000
     1.0000   1.0000   1.0000   1.0000   1.0000   1.0000   1.0159   0.0000
     0.0000   0.0000   0.0000

          k =-0.5385 0.2221-0.1830 (  1112 PWs)   bands (ev):

   -47.9984 -47.9769 -22.1706 -22.0929 -21.8782 -21.8064 -21.7725 -21.7043
     5.6273  10.3053  12.2754  12.8634  14.1321  14.9047  15.9200  17.1341
    18.2015  18.3089  18.5410

     occupation numbers 
     1.0000   1.0000   1.0000   1.0000   1.0000   1.0000   1.0000   1.0000
     1.0000   1.0000   1.0000   1.0000   1.0000   1.0000   1.0257   0.0000
     0.0000   0.0000   0.0000

          k =-0.5385 0.2221-0.2745 (  1123 PWs)   bands (ev):

   -47.9916 -47.9837 -22.1718 -22.1415 -21.8439 -21.8066 -21.7483 -21.7118
     5.6150  10.3157  12.2141  12.9283  14.5086  15.0524  15.9451  16.6069
    17.9264  18.2028  18.5088

     occupation numbers 
     1.0000   1.0000   1.0000   1.0000   1.0000   1.0000   1.0000   1.0000
     1.0000   1.0000   1.0000   1.0000   1.0000   1.0000   0.9800   0.0000
     0.0000   0.0000   0.0000

          k =-0.3077 0.0000 0.0000 (  1090 PWs)   bands (ev):

   -48.0511 -47.9722 -22.0707 -21.9271 -21.9197 -21.7928 -21.7210 -21.6384
     4.6761  11.3923  11.7739  13.0871  14.2238  14.7238  15.7484  16.7670
    17.0731  17.6537  18.1720

     occupation numbers 
     1.0000   1.0000   1.0000   1.0000   1.0000   1.0000   1.0000   1.0000
     1.0000   1.0000   1.0000   1.0000   1.0000   1.0000   1.0546   0.0000
     0.0000   0.0000   0.0000

          k =-0.3077 0.0000-0.0915 (  1108 PWs)   bands (ev):

   -48.0473 -47.9762 -22.0716 -21.9236 -21.9026 -21.8018 -21.7268 -21.6438
     4.7002  11.3889  11.7482  12.9764  14.3357  14.8081  15.7849  16.5855
    17.1354  17.6361  18.1901

     occupation numbers 
     1.0000   1.0000   1.0000   1.0000   1.0000   1.0000   1.0000   1.0000
     1.0000   1.0000   1.0000   1.0000   1.0000   1.0000   1.0710   0.0000
     0.0000   0.0000   0.0000

          k =-0.3077 0.0000-0.1830 (  1116 PWs)   bands (ev):

   -48.0364 -47.9871 -22.0634 -21.9441 -21.8465 -21.8107 -21.7422 -21.6647
     4.7556  11.2898  11.7752  12.8404  14.5861  14.8776  15.7560  16.3829
    17.1977  17.7079  18.1114

     occupation numbers 
     1.0000   1.0000   1.0000   1.0000   1.0000   1.0000   1.0000   1.0000
     1.0000   1.0000   1.0000   1.0000   1.0000   1.0000   1.0582   0.0087
     0.0000   0.0000   0.0000

          k =-0.3077 0.0000-0.2745 (  1118 PWs)   bands (ev):

   -48.0209 -48.0026 -22.0387 -21.9823 -21.8042 -21.7925 -21.7502 -21.7049
     4.8014  11.1531  11.8604  12.7879  14.8188  14.9484  15.3970  16.4739
    17.3634  17.6753  18.0480

     occupation numbers 
     1.0000   1.0000   1.0000   1.0000   1.0000   1.0000   1.0000   1.0000
     1.0000   1.0000   1.0000   1.0000   1.0000   1.0000   1.0001   0.0011
     0.0000   0.0000   0.0000

          k =-0.3846 0.0444 0.0000 (  1112 PWs)   bands (ev):

   -48.0320 -47.9694 -22.0209 -21.9998 -21.9637 -21.8339 -21.7457 -21.6708
     5.0975  10.9814  12.1539  12.8617  14.0969  14.4997  15.5264  17.2274
    17.3934  18.1915  18.2553

     occupation numbers 
     1.0000   1.0000   1.0000   1.0000   1.0000   1.0000   1.0000   1.0000
     1.0000   1.0000   1.0000   1.0000   1.0000   1.0000   1.0017   0.0000
     0.0000   0.0000   0.0000

          k =-0.3846 0.0444-0.0915 (  1113 PWs)   bands (ev):

   -48.0289 -47.9725 -22.0643 -21.9866 -21.9190 -21.8416 -21.7543 -21.6691
     5.0992  11.1063  12.0917  12.7363  14.2842  14.5398  15.5316  16.8451
    17.5296  18.0240  18.3859

     occupation numbers 
     1.0000   1.0000   1.0000   1.0000   1.0000   1.0000   1.0000   1.0000
     1.0000   1.0000   1.0000   1.0000   1.0000   1.0000   1.0019   0.0000
     0.0000   0.0000   0.0000

          k =-0.3846 0.0444-0.1830 (  1118 PWs)   bands (ev):

   -48.0203 -47.9812 -22.0895 -22.0059 -21.8570 -21.8389 -21.7692 -21.6744
     5.1209  11.2958  11.8959  12.5641  14.5715  14.7084  15.7129  16.3400
    17.6164  17.8744  18.3851

     occupation numbers 
     1.0000   1.0000   1.0000   1.0000   1.0000   1.0000   1.0000   1.0000
     1.0000   1.0000   1.0000   1.0000   1.0000   1.0000   1.0385   0.0203
     0.0000   0.0000   0.0000

          k =-0.3846 0.0444-0.2745 (  1116 PWs)   bands (ev):

   -48.0080 -47.9935 -22.0878 -22.0383 -21.8386 -21.8215 -21.7474 -21.7013
     5.1468  11.3693  11.7380  12.5249  14.6832  15.0079  15.6000  16.3143
    17.5282  17.8462  18.2865

     occupation numbers 
     1.0000   1.0000   1.0000   1.0000   1.0000   1.0000   1.0000   1.0000
     1.0000   1.0000   1.0000   1.0000   1.0000   1.0000   1.0075   0.0322
     0.0000   0.0000   0.0000

          k =-0.4615 0.0888 0.0000 (  1113 PWs)   bands (ev):

   -48.0140 -47.9692 -22.0757 -21.9890 -21.9534 -21.8798 -21.7633 -21.7095
     5.4623  10.6836  12.3295  12.6772  13.9539  14.5528  15.4639  17.6263
    17.8084  18.3330  18.6777

     occupation numbers 
     1.0000   1.0000   1.0000   1.0000   1.0000   1.0000   1.0000   1.0000
     1.0000   1.0000   1.0000   1.0000   1.0000   1.0000   1.0004   0.0000
     0.0000   0.0000   0.0000

          k =-0.4615 0.0888-0.0915 (  1115 PWs)   bands (ev):

   -48.0118 -47.9714 -22.0988 -22.0129 -21.9111 -21.8728 -21.7755 -21.6992
     5.4495  10.7997  12.2935  12.6073  14.0960  14.6014  15.4522  17.1844
    17.9577  18.2191  18.7593

     occupation numbers 
     1.0000   1.0000   1.0000   1.0000   1.0000   1.0000   1.0000   1.0000
     1.0000   1.0000   1.0000   1.0000   1.0000   1.0000   1.0003   0.0000
     0.0000   0.0000   0.0000

          k =-0.4615 0.0888-0.1830 (  1118 PWs)   bands (ev):

   -48.0056 -47.9776 -22.1252 -22.0478 -21.8963 -21.8266 -21.7849 -21.6886
     5.4493  10.9049  12.2417  12.4154  14.4115  14.8067  15.6423  16.5869
    17.9333  18.1422  18.7781

     occupation numbers 
     1.0000   1.0000   1.0000   1.0000   1.0000   1.0000   1.0000   1.0000
     1.0000   1.0000   1.0000   1.0000   1.0000   1.0000   1.0151   0.0000
     0.0000   0.0000   0.0000

          k =-0.4615 0.0888-0.2745 (  1124 PWs)   bands (ev):

   -47.9968 -47.9864 -22.1290 -22.0859 -21.8726 -21.8447 -21.7361 -21.7004
     5.4621  10.8966  12.1397  12.3878  14.6777  15.0352  15.8548  16.2098
    17.7108  18.2156  18.4088

     occupation numbers 
     1.0000   1.0000   1.0000   1.0000   1.0000   1.0000   1.0000   1.0000
     1.0000   1.0000   1.0000   1.0000   1.0000   1.0000   1.0811   0.1544
     0.0000   0.0000   0.0000

          k =-0.5385 0.1332 0.0000 (  1122 PWs)   bands (ev):

   -48.0017 -47.9712 -22.1127 -21.9986 -21.9114 -21.9084 -21.7727 -21.7433
     5.6751  10.5285  12.3476  12.5762  13.8842  14.6388  15.5388  17.8672
    18.1182  18.4574  19.0196

     occupation numbers 
     1.0000   1.0000   1.0000   1.0000   1.0000   1.0000   1.0000   1.0000
     1.0000   1.0000   1.0000   1.0000   1.0000   1.0000   1.0023   0.0000
     0.0000   0.0000   0.0000

          k =-0.5385 0.1332-0.0915 (  1112 PWs)   bands (ev):

   -48.0002 -47.9727 -22.1264 -22.0222 -21.9305 -21.8540 -21.7898 -21.7234
     5.6658  10.5711  12.3072  12.5644  14.0247  14.6885  15.5548  17.5006
    18.2131  18.3601  18.9689

     occupation numbers 
     1.0000   1.0000   1.0000   1.0000   1.0000   1.0000   1.0000   1.0000
     1.0000   1.0000   1.0000   1.0000   1.0000   1.0000   1.0032   0.0000
     0.0000   0.0000   0.0000

          k =-0.5385 0.1332-0.1830 (  1112 PWs)   bands (ev):

   -47.9960 -47.9769 -22.1467 -22.0708 -21.9224 -21.8212 -21.7834 -21.7005
     5.6597  10.5946  12.2787  12.4559  14.3868  14.8766  15.6856  16.8894
    18.1044  18.3982  18.6712

     occupation numbers 
     1.0000   1.0000   1.0000   1.0000   1.0000   1.0000   1.0000   1.0000
     1.0000   1.0000   1.0000   1.0000   1.0000   1.0000   1.0278   0.0000
     0.0000   0.0000   0.0000

          k =-0.5385 0.1332-0.2745 (  1112 PWs)   bands (ev):

   -47.9899 -47.9829 -22.1494 -22.1160 -21.8932 -21.8571 -21.7278 -21.7003
     5.6616  10.5787  12.2696  12.3679  14.7662  15.0425  15.9367  16.3160
    17.9625  18.2824  18.5336

     occupation numbers 
     1.0000   1.0000   1.0000   1.0000   1.0000   1.0000   1.0000   1.0000
     1.0000   1.0000   1.0000   1.0000   1.0000   1.0000   0.9969   0.0313
     0.0000   0.0000   0.0000

          k =-0.4615 0.0000 0.0000 (  1100 PWs)   bands (ev):

   -48.0149 -47.9691 -22.0495 -21.9982 -21.9561 -21.8666 -21.7884 -21.7073
     5.4383  10.8401  12.2436  12.6679  14.1332  14.4549  15.2681  17.6359
    17.6826  18.2476  18.6669

     occupation numbers 
     1.0000   1.0000   1.0000   1.0000   1.0000   1.0000   1.0000   1.0000
     1.0000   1.0000   1.0000   1.0000   1.0000   1.0000   1.0000   0.0000
     0.0000   0.0000   0.0000

          k =-0.4615 0.0000-0.0915 (  1113 PWs)   bands (ev):

   -48.0126 -47.9714 -22.0560 -22.0401 -21.8978 -21.8829 -21.7934 -21.6955
     5.4421  10.8889  12.2468  12.4826  14.3570  14.5219  15.2802  17.3358
    17.9150  18.0374  18.7190

     occupation numbers 
     1.0000   1.0000   1.0000   1.0000   1.0000   1.0000   1.0000   1.0000
     1.0000   1.0000   1.0000   1.0000   1.0000   1.0000   1.0000   0.0000
     0.0000   0.0000   0.0000

          k =-0.4615 0.0000-0.1830 (  1116 PWs)   bands (ev):

   -48.0063 -47.9777 -22.0895 -22.0574 -21.9011 -21.8486 -21.7853 -21.6829
     5.4509  11.0127  12.1286  12.2769  14.6832  14.7869  15.3387  16.9242
    17.6906  18.1351  18.7624

     occupation numbers 
     1.0000   1.0000   1.0000   1.0000   1.0000   1.0000   1.0000   1.0000
     1.0000   1.0000   1.0000   1.0000   1.0000   1.0000   1.0000   0.0000
     0.0000   0.0000   0.0000

          k =-0.4615 0.0000-0.2745 (  1118 PWs)   bands (ev):

   -47.9973 -47.9867 -22.1034 -22.0774 -21.8916 -21.8650 -21.7333 -21.6935
     5.4582  11.1364  11.9081  12.2614  14.8193  15.1675  15.3949  16.5975
    17.4467  18.2556  18.5186

     occupation numbers 
     1.0000   1.0000   1.0000   1.0000   1.0000   1.0000   1.0000   1.0000
     1.0000   1.0000   1.0000   1.0000   1.0000   1.0000   1.0001   0.0000
     0.0000   0.0000   0.0000

          k =-0.5385 0.0444 0.0000 (  1112 PWs)   bands (ev):

   -47.9999 -47.9716 -22.0849 -21.9939 -21.9118 -21.9019 -21.8180 -21.7484
     5.6814  10.8162  12.0291  12.6867  14.1237  14.6074  15.1537  17.8719
    18.0266  18.2861  18.9412

     occupation numbers 
     1.0000   1.0000   1.0000   1.0000   1.0000   1.0000   1.0000   1.0000
     1.0000   1.0000   1.0000   1.0000   1.0000   1.0000   1.0000   0.0000
     0.0000   0.0000   0.0000

          k =-0.5385 0.0444-0.0915 (  1114 PWs)   bands (ev):

   -47.9985 -47.9730 -22.0897 -22.0247 -21.9340 -21.8603 -21.8219 -21.7276
     5.6799  10.8600  11.9892  12.5965  14.2692  14.7035  15.1759  17.5491
    18.1176  18.2113  18.9645

     occupation numbers 
     1.0000   1.0000   1.0000   1.0000   1.0000   1.0000   1.0000   1.0000
     1.0000   1.0000   1.0000   1.0000   1.0000   1.0000   1.0000   0.0000
     0.0000   0.0000   0.0000

          k =-0.5385 0.0444-0.1830 (  1117 PWs)   bands (ev):

   -47.9946 -47.9769 -22.1061 -22.0604 -21.9523 -21.8675 -21.7715 -21.6990
     5.6850  10.9130  11.8991  12.4197  14.6289  14.9192  15.3134  17.0517
    17.8312  18.3788  18.8663

     occupation numbers 
     1.0000   1.0000   1.0000   1.0000   1.0000   1.0000   1.0000   1.0000
     1.0000   1.0000   1.0000   1.0000   1.0000   1.0000   1.0000   0.0000
     0.0000   0.0000   0.0000

          k =-0.5385 0.0444-0.2745 (  1115 PWs)   bands (ev):

   -47.9890 -47.9825 -22.1162 -22.0904 -21.9356 -21.9021 -21.7181 -21.6934
     5.6930  10.9308  11.8221  12.3188  14.9302  15.1351  15.4873  16.6442
    17.6269  18.3818  18.6791

     occupation numbers 
     1.0000   1.0000   1.0000   1.0000   1.0000   1.0000   1.0000   1.0000
     1.0000   1.0000   1.0000   1.0000   1.0000   1.0000   1.0007   0.0000
     0.0000   0.0000   0.0000

          k =-0.6154 0.0888 0.0000 (  1118 PWs)   bands (ev):

   -47.9926 -47.9744 -22.0981 -21.9743 -21.9464 -21.8721 -21.8278 -21.7736
     5.7689  10.8312  11.9091  12.7034  14.1151  14.6712  15.1636  17.9608
    18.1861  18.3561  19.0597

     occupation numbers 
     1.0000   1.0000   1.0000   1.0000   1.0000   1.0000   1.0000   1.0000
     1.0000   1.0000   1.0000   1.0000   1.0000   1.0000   1.0000   0.0000
     0.0000   0.0000   0.0000

          k =-0.6154 0.0888-0.0915 (  1114 PWs)   bands (ev):

   -47.9917 -47.9753 -22.1002 -22.0019 -21.9735 -21.8445 -21.8256 -21.7460
     5.7724  10.8239  11.8879  12.6232  14.2704  14.7524  15.2133  17.7378
    18.1576  18.2925  18.9810

     occupation numbers 
     1.0000   1.0000   1.0000   1.0000   1.0000   1.0000   1.0000   1.0000
     1.0000   1.0000   1.0000   1.0000   1.0000   1.0000   1.0000   0.0000
     0.0000   0.0000   0.0000

          k =-0.6154 0.0888-0.1830 (  1107 PWs)   bands (ev):

   -47.9892 -47.9778 -22.1103 -22.0544 -21.9811 -21.8757 -21.7599 -21.7085
     5.7801  10.8113  11.8394  12.4677  14.6350  14.9485  15.3475  17.2229
    17.9524  18.3036  18.8824

     occupation numbers 
     1.0000   1.0000   1.0000   1.0000   1.0000   1.0000   1.0000   1.0000
     1.0000   1.0000   1.0000   1.0000   1.0000   1.0000   1.0000   0.0000
     0.0000   0.0000   0.0000

          k =-0.6154 0.0888-0.2745 (  1107 PWs)   bands (ev):

   -47.9856 -47.9814 -22.1156 -22.0967 -21.9552 -21.9153 -21.7119 -21.6940
     5.7863  10.8051  11.7997  12.3571  14.9928  15.1138  15.4999  16.7457
    17.8266  18.1680  18.8752

     occupation numbers 
     1.0000   1.0000   1.0000   1.0000   1.0000   1.0000   1.0000   1.0000
     1.0000   1.0000   1.0000   1.0000   1.0000   1.0000   1.0010   0.0000
     0.0000   0.0000   0.0000

          k =-0.6154 0.0000 0.0000 (  1126 PWs)   bands (ev):

   -47.9878 -47.9771 -22.0866 -21.9730 -21.9422 -21.8639 -21.8506 -21.7926
     5.7997  11.0998  11.5952  12.7763  14.1978  14.7598  14.9413  18.1020
    18.1394  18.2660  18.9267

     occupation numbers 
     1.0000   1.0000   1.0000   1.0000   1.0000   1.0000   1.0000   1.0000
     1.0000   1.0000   1.0000   1.0000   1.0000   1.0000   1.0000   0.0000
     0.0000   0.0000   0.0000

          k =-0.6154 0.0000-0.0915 (  1120 PWs)   bands (ev):

   -47.9873 -47.9776 -22.0788 -22.0091 -21.9735 -21.8772 -21.8073 -21.7621
     5.8059  11.0905  11.5648  12.6795  14.3667  14.8378  14.9974  17.9123
    18.0253  18.2458  18.9715

     occupation numbers 
     1.0000   1.0000   1.0000   1.0000   1.0000   1.0000   1.0000   1.0000
     1.0000   1.0000   1.0000   1.0000   1.0000   1.0000   1.0000   0.0000
     0.0000   0.0000   0.0000

          k =-0.6154 0.0000-0.1830 (  1105 PWs)   bands (ev):

   -47.9858 -47.9791 -22.0685 -22.0583 -22.0101 -21.9064 -21.7460 -21.7170
     5.8198  11.0738  11.4934  12.5048  14.7386  15.0308  15.1376  17.4172
    17.8229  18.1934  19.0179

     occupation numbers 
     1.0000   1.0000   1.0000   1.0000   1.0000   1.0000   1.0000   1.0000
     1.0000   1.0000   1.0000   1.0000   1.0000   1.0000   1.0000   0.0000
     0.0000   0.0000   0.0000

          k =-0.6154 0.0000-0.2745 (  1112 PWs)   bands (ev):

   -47.9837 -47.9812 -22.0871 -22.0822 -21.9901 -21.9472 -21.7043 -21.6941
     5.8311  11.0654  11.4326  12.3892  15.0639  15.2309  15.2601  16.9871
    17.6740  18.0595  19.0889

     occupation numbers 
     1.0000   1.0000   1.0000   1.0000   1.0000   1.0000   1.0000   1.0000
     1.0000   1.0000   1.0000   1.0000   1.0000   1.0000   1.0000   0.0000
     0.0000   0.0000   0.0000

          k = 0.0769 0.0444 0.0915 (  1108 PWs)   bands (ev):

   -48.0862 -47.9889 -22.1511 -21.7699 -21.7594 -21.7044 -21.6777 -21.6138
     3.8068  10.5024  13.0348  13.2923  14.3590  15.9533  16.2151  16.3685
    16.5736  16.8323  17.8005

     occupation numbers 
     1.0000   1.0000   1.0000   1.0000   1.0000   1.0000   1.0000   1.0000
     1.0000   1.0000   1.0000   1.0000   1.0000   0.9620   0.1443   0.0117
     0.0001   0.0000   0.0000

          k = 0.0769 0.0444 0.1830 (  1110 PWs)   bands (ev):

   -48.0714 -48.0039 -22.0741 -21.7560 -21.7488 -21.7417 -21.6884 -21.6717
     3.9442  10.1225  13.0545  13.1908  14.5694  15.6934  15.9178  16.1781
    17.0019  17.2301  17.9702

     occupation numbers 
     1.0000   1.0000   1.0000   1.0000   1.0000   1.0000   1.0000   1.0000
     1.0000   1.0000   1.0000   1.0000   1.0000   1.0306   1.0291   0.2248
     0.0000   0.0000   0.0000

          k = 0.0769 0.0444 0.2745 (  1108 PWs)   bands (ev):

   -48.0503 -48.0252 -21.9626 -21.8390 -21.7341 -21.7329 -21.7112 -21.7043
     4.0618   9.8317  13.0224  13.1589  14.9137  15.3159  15.7776  16.0053
    17.4886  17.5898  17.9673

     occupation numbers 
     1.0000   1.0000   1.0000   1.0000   1.0000   1.0000   1.0000   1.0000
     1.0000   1.0000   1.0000   1.0000   1.0000   1.0000   1.0680   0.8147
     0.0000   0.0000   0.0000

          k = 0.1538 0.0888 0.0915 (  1107 PWs)   bands (ev):

   -48.0742 -47.9844 -22.1240 -21.8268 -21.7806 -21.7699 -21.6836 -21.6180
     4.0861  10.8506  12.3543  13.2527  14.4201  15.5135  16.0821  16.6202
    16.7191  16.8887  18.0361

     occupation numbers 
     1.0000   1.0000   1.0000   1.0000   1.0000   1.0000   1.0000   1.0000
     1.0000   1.0000   1.0000   1.0000   1.0000   1.0013   0.5346   0.0000
     0.0000   0.0000   0.0000

          k = 0.1538 0.0888 0.1830 (  1107 PWs)   bands (ev):

   -48.0606 -47.9982 -22.0624 -21.8166 -21.8000 -21.7682 -21.6961 -21.6629
     4.1986  10.4914  12.4897  13.1717  14.5868  15.3480  15.7988  16.4832
    17.0593  17.2708  18.0656

     occupation numbers 
     1.0000   1.0000   1.0000   1.0000   1.0000   1.0000   1.0000   1.0000
     1.0000   1.0000   1.0000   1.0000   1.0000   1.0000   1.0763   0.0008
     0.0000   0.0000   0.0000

          k = 0.1538 0.0888 0.2745 (  1107 PWs)   bands (ev):

   -48.0411 -48.0179 -21.9763 -21.8866 -21.7648 -21.7489 -21.7168 -21.7155
     4.2900  10.2405  12.5714  13.1843  14.8560  15.0867  15.5457  16.2891
    17.5328  17.5953  17.8997

     occupation numbers 
     1.0000   1.0000   1.0000   1.0000   1.0000   1.0000   1.0000   1.0000
     1.0000   1.0000   1.0000   1.0000   1.0000   1.0000   1.0026   0.0493
     0.0000   0.0000   0.0000

          k = 0.2308 0.1332 0.0915 (  1111 PWs)   bands (ev):

   -48.0567 -47.9787 -22.0860 -21.9072 -21.8518 -21.8080 -21.6943 -21.6325
     4.4989  11.2032  11.7587  13.1835  14.2419  15.0941  15.9694  16.9131
    17.0749  17.1908  18.2342

     occupation numbers 
     1.0000   1.0000   1.0000   1.0000   1.0000   1.0000   1.0000   1.0000
     1.0000   1.0000   1.0000   1.0000   1.0000   1.0000   0.9221   0.0000
     0.0000   0.0000   0.0000

          k = 0.2308 0.1332 0.1830 (  1110 PWs)   bands (ev):

   -48.0448 -47.9907 -22.0566 -21.9102 -21.8483 -21.7930 -21.7095 -21.6641
     4.5760  10.9083  11.9027  13.1496  14.4260  15.0043  15.8047  16.9154
    17.2564  17.4004  18.0957

     occupation numbers 
     1.0000   1.0000   1.0000   1.0000   1.0000   1.0000   1.0000   1.0000
     1.0000   1.0000   1.0000   1.0000   1.0000   1.0000   1.0781   0.0000
     0.0000   0.0000   0.0000

          k = 0.2308 0.1332 0.2745 (  1117 PWs)   bands (ev):

   -48.0279 -48.0077 -22.0131 -21.9625 -21.7889 -21.7698 -21.7329 -21.7162
     4.6282  10.7666  12.0037  13.2101  14.6938  14.7991  15.5191  16.6748
    17.6255  17.6524  17.8552

     occupation numbers 
     1.0000   1.0000   1.0000   1.0000   1.0000   1.0000   1.0000   1.0000
     1.0000   1.0000   1.0000   1.0000   1.0000   1.0000   1.0015   0.0000
     0.0000   0.0000   0.0000

          k = 0.3077 0.1776 0.0915 (  1109 PWs)   bands (ev):

   -48.0368 -47.9738 -22.0636 -21.9776 -21.9250 -21.8354 -21.7072 -21.6568
     4.9648  10.8180  11.9820  13.0819  13.9195  14.8773  15.9819  17.3018
    17.4997  17.6650  18.3308

     occupation numbers 
     1.0000   1.0000   1.0000   1.0000   1.0000   1.0000   1.0000   1.0000
     1.0000   1.0000   1.0000   1.0000   1.0000   1.0000   0.8874   0.0000
     0.0000   0.0000   0.0000

          k = 0.3077 0.1776 0.1830 (  1118 PWs)   bands (ev):

   -48.0272 -47.9835 -22.0797 -22.0015 -21.8684 -21.8177 -21.7252 -21.6736
     5.0037  10.7790  11.9095  13.1110  14.1440  14.8727  15.9091  17.3711
    17.5194  17.6680  18.0751

     occupation numbers 
     1.0000   1.0000   1.0000   1.0000   1.0000   1.0000   1.0000   1.0000
     1.0000   1.0000   1.0000   1.0000   1.0000   1.0000   1.0410   0.0000
     0.0000   0.0000   0.0000

          k = 0.3077 0.1776 0.2745 (  1117 PWs)   bands (ev):

   -48.0135 -47.9972 -22.0695 -22.0483 -21.7911 -21.7909 -21.7522 -21.7144
     5.0137  10.8792  11.8438  13.2149  14.5030  14.6497  15.6643  16.9905
    17.6714  17.7898  17.9572

     occupation numbers 
     1.0000   1.0000   1.0000   1.0000   1.0000   1.0000   1.0000   1.0000
     1.0000   1.0000   1.0000   1.0000   1.0000   1.0000   1.0209   0.0000
     0.0000   0.0000   0.0000

          k = 0.3846 0.2221 0.0915 (  1121 PWs)   bands (ev):

   -48.0185 -47.9715 -22.1068 -22.0149 -21.9329 -21.8571 -21.7188 -21.6874
     5.3729  10.3797  12.2631  12.9869  13.6671  14.8376  16.0572  17.7738
    17.9891  18.1241  18.3220

     occupation numbers 
     1.0000   1.0000   1.0000   1.0000   1.0000   1.0000   1.0000   1.0000
     1.0000   1.0000   1.0000   1.0000   1.0000   1.0000   0.6283   0.0000
     0.0000   0.0000   0.0000

          k = 0.3846 0.2221 0.1830 (  1122 PWs)   bands (ev):

   -48.0114 -47.9787 -22.1297 -22.0673 -21.8548 -21.8372 -21.7390 -21.6893
     5.3793  10.3786  12.1619  13.0739  13.9666  14.9323  16.0051  17.5911
    17.8065  17.9960  18.1895

     occupation numbers 
     1.0000   1.0000   1.0000   1.0000   1.0000   1.0000   1.0000   1.0000
     1.0000   1.0000   1.0000   1.0000   1.0000   1.0000   0.8151   0.0000
     0.0000   0.0000   0.0000

          k = 0.3846 0.2221 0.2745 (  1121 PWs)   bands (ev):

   -48.0011 -47.9889 -22.1265 -22.1182 -21.8076 -21.7806 -21.7690 -21.7151
     5.3598  10.4954  12.0847  13.2050  14.3508  14.8395  15.8018  17.0570
    17.6392  18.0568  18.2018
[...]
     4.1964  11.0042  11.7999  13.0174  14.2331  15.0631  15.8383  16.4194
    16.6884  17.0219  17.9400

     occupation numbers 
     1.0000   1.0000   1.0000   1.0000   1.0000   1.0000   1.0000   1.0000
     1.0000   1.0000   1.0000   1.0000   1.0000   1.0000   0.8538   0.0001
     0.0000   0.0000   0.0000

          k = 0.2304 0.0443 0.1821 (  1115 PWs)   bands (ev):

   -48.2146 -48.1601 -22.2148 -22.0381 -21.9908 -21.9468 -21.8806 -21.8319
     4.2825  10.6830  11.9698  12.9330  14.4179  14.9882  15.6197  16.4369
    16.8012  17.2932  17.8867

     occupation numbers 
     1.0000   1.0000   1.0000   1.0000   1.0000   1.0000   1.0000   1.0000
     1.0000   1.0000   1.0000   1.0000   1.0000   1.0000   1.0666   0.0000
     0.0000   0.0000   0.0000

          k = 0.2304 0.0443 0.2731 (  1121 PWs)   bands (ev):

   -48.1971 -48.1777 -22.1586 -22.0872 -21.9462 -21.9321 -21.9010 -21.8797
     4.3501  10.4781  12.0885  12.9234  14.6479  14.8681  15.2953  16.3089
    17.1893  17.5216  17.7356

     occupation numbers 
     1.0000   1.0000   1.0000   1.0000   1.0000   1.0000   1.0000   1.0000
     1.0000   1.0000   1.0000   1.0000   1.0000   1.0000   1.0003   0.0014
     0.0000   0.0000   0.0000

          k = 0.3072 0.0887 0.0910 (  1119 PWs)   bands (ev):

   -48.2084 -48.1426 -22.2217 -22.1152 -22.0611 -21.9837 -21.8809 -21.8166
     4.6320  10.9730  11.6870  12.8742  14.0250  14.7680  15.6980  16.8393
    17.0575  17.4416  18.0273

     occupation numbers 
     1.0000   1.0000   1.0000   1.0000   1.0000   1.0000   1.0000   1.0000
     1.0000   1.0000   1.0000   1.0000   1.0000   1.0000   1.0816   0.0000
     0.0000   0.0000   0.0000

          k = 0.3072 0.0887 0.1821 (  1123 PWs)   bands (ev):

   -48.1983 -48.1528 -22.2201 -22.1283 -22.0220 -21.9757 -21.8975 -21.8367
     4.6833  10.8905  11.6622  12.8233  14.2407  14.7940  15.5974  16.8228
    17.1512  17.4890  17.8681

     occupation numbers 
     1.0000   1.0000   1.0000   1.0000   1.0000   1.0000   1.0000   1.0000
     1.0000   1.0000   1.0000   1.0000   1.0000   1.0000   1.0564   0.0000
     0.0000   0.0000   0.0000

          k = 0.3072 0.0887 0.2731 (  1127 PWs)   bands (ev):

   -48.1837 -48.1674 -22.2026 -22.1663 -21.9685 -21.9488 -21.9176 -21.8773
     4.7128  10.8995  11.6565  12.8401  14.5312  14.6722  15.3572  16.6273
    17.3713  17.4512  17.8432

     occupation numbers 
     1.0000   1.0000   1.0000   1.0000   1.0000   1.0000   1.0000   1.0000
     1.0000   1.0000   1.0000   1.0000   1.0000   1.0000   1.0013   0.0000
     0.0000   0.0000   0.0000

          k = 0.3840 0.1330 0.0910 (  1127 PWs)   bands (ev):

   -48.1898 -48.1390 -22.2315 -22.1683 -22.0923 -22.0152 -21.8954 -21.8431
     5.0672  10.4926  12.0409  12.7324  13.7756  14.6701  15.7005  17.3458
    17.4759  17.8548  18.1163

     occupation numbers 
     1.0000   1.0000   1.0000   1.0000   1.0000   1.0000   1.0000   1.0000
     1.0000   1.0000   1.0000   1.0000   1.0000   1.0000   1.0810   0.0000
     0.0000   0.0000   0.0000

          k = 0.3840 0.1330 0.1821 (  1134 PWs)   bands (ev):

   -48.1820 -48.1468 -22.2547 -22.2031 -22.0314 -21.9936 -21.9148 -21.8480
     5.0866  10.5035  11.9378  12.7385  14.0397  14.7692  15.6668  17.2733
    17.3991  17.6916  18.0447

     occupation numbers 
     1.0000   1.0000   1.0000   1.0000   1.0000   1.0000   1.0000   1.0000
     1.0000   1.0000   1.0000   1.0000   1.0000   1.0000   1.0821   0.0000
     0.0000   0.0000   0.0000

          k = 0.3840 0.1330 0.2731 (  1126 PWs)   bands (ev):

   -48.1707 -48.1581 -22.2532 -22.2439 -21.9892 -21.9578 -21.9258 -21.8755
     5.0822  10.6330  11.8483  12.7860  14.3675  14.7103  15.5212  16.7797
    17.3965  17.8023  17.9639

     occupation numbers 
     1.0000   1.0000   1.0000   1.0000   1.0000   1.0000   1.0000   1.0000
     1.0000   1.0000   1.0000   1.0000   1.0000   1.0000   1.0245   0.0000
     0.0000   0.0000   0.0000

          k = 0.4608 0.1774 0.0910 (  1124 PWs)   bands (ev):

   -48.1747 -48.1383 -22.2825 -22.1936 -22.0767 -22.0310 -21.9077 -21.8714
     5.3864  10.1894  12.2224  12.6215  13.6428  14.6774  15.7688  17.7240
    17.8490  18.0287  18.4581

     occupation numbers 
     1.0000   1.0000   1.0000   1.0000   1.0000   1.0000   1.0000   1.0000
     1.0000   1.0000   1.0000   1.0000   1.0000   1.0000   1.0201   0.0000
     0.0000   0.0000   0.0000

          k = 0.4608 0.1774 0.1821 (  1128 PWs)   bands (ev):

   -48.1691 -48.1439 -22.3022 -22.2436 -22.0376 -21.9863 -21.9293 -21.8629
     5.3831  10.1939  12.1142  12.6906  13.9715  14.8269  15.7569  17.2424
    17.7265  18.0238  18.3085

     occupation numbers 
     1.0000   1.0000   1.0000   1.0000   1.0000   1.0000   1.0000   1.0000
     1.0000   1.0000   1.0000   1.0000   1.0000   1.0000   1.0377   0.0000
     0.0000   0.0000   0.0000

          k = 0.4608 0.1774 0.2731 (  1129 PWs)   bands (ev):

   -48.1610 -48.1520 -22.3025 -22.2892 -22.0038 -21.9673 -21.9216 -21.8767
     5.3636  10.2770  12.0416  12.7625  14.3365  14.8653  15.6968  16.6607
    17.6275  17.9882  18.2036

     occupation numbers 
     1.0000   1.0000   1.0000   1.0000   1.0000   1.0000   1.0000   1.0000
     1.0000   1.0000   1.0000   1.0000   1.0000   1.0000   1.0818   0.0000
     0.0000   0.0000   0.0000

          k = 0.3840 0.0443 0.0910 (  1120 PWs)   bands (ev):

   -48.1933 -48.1395 -22.2077 -22.1648 -22.0810 -22.0077 -21.9184 -21.8368
     4.9682  10.8245  11.9767  12.5536  14.0941  14.5264  15.4257  16.9515
    17.3730  17.7954  18.1348

     occupation numbers 
     1.0000   1.0000   1.0000   1.0000   1.0000   1.0000   1.0000   1.0000
     1.0000   1.0000   1.0000   1.0000   1.0000   1.0000   1.0052   0.0000
     0.0000   0.0000   0.0000

          k = 0.3840 0.0443 0.1821 (  1125 PWs)   bands (ev):

   -48.1851 -48.1478 -22.2330 -22.1811 -22.0247 -22.0040 -21.9322 -21.8416
     4.9939  10.9124  11.8316  12.4334  14.3481  14.7497  15.3957  16.7060
    17.4370  17.6139  18.1449

     occupation numbers 
     1.0000   1.0000   1.0000   1.0000   1.0000   1.0000   1.0000   1.0000
     1.0000   1.0000   1.0000   1.0000   1.0000   1.0000   1.0029   0.0000
     0.0000   0.0000   0.0000

          k = 0.3840 0.0443 0.2731 (  1123 PWs)   bands (ev):

   -48.1731 -48.1598 -22.2357 -22.2069 -22.0061 -21.9838 -21.9159 -21.8681
     5.0072  11.0657  11.6768  12.3903  14.5477  14.9755  15.2366  16.5045
    17.2503  17.6845  18.1377

     occupation numbers 
     1.0000   1.0000   1.0000   1.0000   1.0000   1.0000   1.0000   1.0000
     1.0000   1.0000   1.0000   1.0000   1.0000   1.0000   1.0001   0.0000
     0.0000   0.0000   0.0000

          k = 0.4608 0.0887 0.0910 (  1121 PWs)   bands (ev):

   -48.1768 -48.1382 -22.2427 -22.1892 -22.0758 -22.0390 -21.9379 -21.8652
     5.3257  10.4913  12.2187  12.3632  13.9902  14.5550  15.3819  17.4659
    17.7162  17.8652  18.4922

     occupation numbers 
     1.0000   1.0000   1.0000   1.0000   1.0000   1.0000   1.0000   1.0000
     1.0000   1.0000   1.0000   1.0000   1.0000   1.0000   1.0022   0.0000
     0.0000   0.0000   0.0000

          k = 0.4608 0.0887 0.1821 (  1128 PWs)   bands (ev):

   -48.1708 -48.1441 -22.2627 -22.2280 -22.0614 -21.9954 -21.9475 -21.8541
     5.3326  10.5279  12.1098  12.2974  14.3071  14.7652  15.3940  17.2076
    17.3538  18.0018  18.4694

     occupation numbers 
     1.0000   1.0000   1.0000   1.0000   1.0000   1.0000   1.0000   1.0000
     1.0000   1.0000   1.0000   1.0000   1.0000   1.0000   1.0028   0.0000
     0.0000   0.0000   0.0000

          k = 0.4608 0.0887 0.2731 (  1128 PWs)   bands (ev):

   -48.1623 -48.1527 -22.2665 -22.2635 -22.0391 -22.0064 -21.9072 -21.8657
     5.3260  10.6368  11.9994  12.2770  14.5845  14.9387  15.4171  16.5936
    17.3419  18.1041  18.2530

     occupation numbers 
     1.0000   1.0000   1.0000   1.0000   1.0000   1.0000   1.0000   1.0000
     1.0000   1.0000   1.0000   1.0000   1.0000   1.0000   1.0044   0.0000
     0.0000   0.0000   0.0000

          k = 0.5376 0.1330 0.0910 (  1122 PWs)   bands (ev):

   -48.1656 -48.1393 -22.2803 -22.1883 -22.0923 -22.0212 -21.9528 -21.8899
     5.5263  10.3560  12.2095  12.3511  13.9235  14.6080  15.4356  17.5606
    17.9445  18.1242  18.7826

     occupation numbers 
     1.0000   1.0000   1.0000   1.0000   1.0000   1.0000   1.0000   1.0000
     1.0000   1.0000   1.0000   1.0000   1.0000   1.0000   1.0063   0.0000
     0.0000   0.0000   0.0000

          k = 0.5376 0.1330 0.1821 (  1127 PWs)   bands (ev):

   -48.1615 -48.1433 -22.2967 -22.2374 -22.0848 -21.9886 -21.9487 -21.8673
     5.5240  10.3569  12.1555  12.2901  14.2852  14.7818  15.5147  17.0213
    17.7660  18.2470  18.5329

     occupation numbers 
     1.0000   1.0000   1.0000   1.0000   1.0000   1.0000   1.0000   1.0000
     1.0000   1.0000   1.0000   1.0000   1.0000   1.0000   1.0224   0.0000
     0.0000   0.0000   0.0000

          k = 0.5376 0.1330 0.2731 (  1123 PWs)   bands (ev):

   -48.1557 -48.1491 -22.2988 -22.2805 -22.0573 -22.0203 -21.8983 -21.8672
     5.5159  10.3932  12.1195  12.2366  14.6609  14.9021  15.6634  16.4082
    17.6898  18.1542  18.3858

     occupation numbers 
     1.0000   1.0000   1.0000   1.0000   1.0000   1.0000   1.0000   1.0000
     1.0000   1.0000   1.0000   1.0000   1.0000   1.0000   1.0815   0.0001
     0.0000   0.0000   0.0000

          k = 0.5376 0.0443 0.0910 (  1125 PWs)   bands (ev):

   -48.1639 -48.1396 -22.2435 -22.1909 -22.0953 -22.0283 -21.9840 -21.8944
     5.5342  10.6622  11.8592  12.4318  14.2214  14.5386  15.0574  17.6123
    17.7225  18.0598  18.7761

     occupation numbers 
     1.0000   1.0000   1.0000   1.0000   1.0000   1.0000   1.0000   1.0000
     1.0000   1.0000   1.0000   1.0000   1.0000   1.0000   1.0000   0.0000
     0.0000   0.0000   0.0000

          k = 0.5376 0.0443 0.1821 (  1124 PWs)   bands (ev):

   -48.1601 -48.1433 -22.2519 -22.2326 -22.1128 -22.0323 -21.9386 -21.8669
     5.5411  10.6885  11.7797  12.2816  14.6318  14.7137  15.1371  17.1636
    17.4463  18.2162  18.7894

     occupation numbers 
     1.0000   1.0000   1.0000   1.0000   1.0000   1.0000   1.0000   1.0000
     1.0000   1.0000   1.0000   1.0000   1.0000   1.0000   1.0000   0.0000
     0.0000   0.0000   0.0000

          k = 0.5376 0.0443 0.2731 (  1125 PWs)   bands (ev):

   -48.1547 -48.1487 -22.2618 -22.2597 -22.0983 -22.0645 -21.8880 -21.8617
     5.5430  10.7441  11.6925  12.1891  14.8568  15.0233  15.2471  16.6184
    17.3636  18.2070  18.5426

     occupation numbers 
     1.0000   1.0000   1.0000   1.0000   1.0000   1.0000   1.0000   1.0000
     1.0000   1.0000   1.0000   1.0000   1.0000   1.0000   1.0001   0.0000
     0.0000   0.0000   0.0000

     the Fermi energy is    15.9645 ev

!    total energy              =    -308.69772947 Ry
     estimated scf accuracy    <          2.7E-11 Ry
     smearing contrib. (-TS)   =       0.00109320 Ry
     internal energy E=F+TS    =    -308.69882267 Ry

     The total energy is F=E-TS. E is the sum of the following terms:
     one-electron contribution =     -95.04130503 Ry
     hartree contribution      =      62.28656561 Ry
     xc contribution           =     -43.88588243 Ry
     ewald contribution        =    -225.88223565 Ry
     one-center paw contrib.   =      -6.17596518 Ry
      -> PAW hartree energy AE =       8.12552320 Ry
      -> PAW hartree energy PS =      -8.11647393 Ry
      -> PAW xc energy AE      =     -10.34878196 Ry
      -> PAW xc energy PS      =       4.16376751 Ry
      -> total E_H with PAW    =      62.29561488 Ry
      -> total E_XC with PAW   =     -50.07089688 Ry

     convergence has been achieved in  13 iterations

     negative rho (up, down):  2.047E-03 0.000E+00

     Forces acting on atoms (cartesian axes, Ry/au):

     atom    1 type  2   force =    -0.00000000    0.00000000    0.00003675
     atom    2 type  2   force =     0.00000000    0.00000000   -0.00003675
     atom    3 type  1   force =     0.00000000    0.00000000    0.00000000
     The non-local contrib.  to forces
     atom    1 type  2   force =    -0.00000000    0.00000000    0.06935015
     atom    2 type  2   force =     0.00000000    0.00000000   -0.06935015
     atom    3 type  1   force =     0.00000000    0.00000000    0.00000000
     The ionic contribution  to forces
     atom    1 type  2   force =     0.00000000   -0.00000000   -8.01095141
     atom    2 type  2   force =     0.00000000    0.00000000    8.01095141
     atom    3 type  1   force =    -0.00000000   -0.00000000    0.00000000
     The local contribution  to forces
     atom    1 type  2   force =    -0.00000000   -0.00000003    7.94109411
     atom    2 type  2   force =    -0.00000000    0.00000003   -7.94109411
     atom    3 type  1   force =    -0.00000000    0.00000000   -0.00000000
     The core correction contribution to forces
     atom    1 type  2   force =    -0.00000000    0.00000000    0.00052242
     atom    2 type  2   force =    -0.00000000   -0.00000000   -0.00052242
     atom    3 type  1   force =    -0.00000000    0.00000000   -0.00000000
     The Hubbard contrib.    to forces
     atom    1 type  2   force =     0.00000000    0.00000000    0.00000000
     atom    2 type  2   force =     0.00000000    0.00000000    0.00000000
     atom    3 type  1   force =     0.00000000    0.00000000    0.00000000
     The SCF correction term to forces
     atom    1 type  2   force =     0.00000000   -0.00000000    0.00002149
     atom    2 type  2   force =    -0.00000000    0.00000000   -0.00002149
     atom    3 type  1   force =    -0.00000000   -0.00000000    0.00000000

     Total force =     0.000052     Total SCF correction =     0.000030
     SCF correction compared to forces is large: reduce conv_thr to get better values


     Computing stress (Cartesian axis) and pressure


     negative rho (up, down):  2.047E-03 0.000E+00
          total   stress  (Ry/bohr**3)                   (kbar)     P=        0.08
   0.00000132   0.00000000   0.00000000            0.19        0.00        0.00
   0.00000000   0.00000132   0.00000000            0.00        0.19        0.00
   0.00000000   0.00000000  -0.00000107            0.00        0.00       -0.16

     kinetic stress (kbar)  35836.08      0.00      0.00
                                0.00  35836.08     -0.00
                                0.00     -0.00  36052.36

     local   stress (kbar)   8475.65      0.00     -0.00
                                0.00   8475.65     -0.00
                               -0.00     -0.00  11027.35

     nonloc. stress (kbar)    181.03      0.00      0.00
                                0.00    181.03      0.00
                                0.00      0.00    132.41

     hartree stress (kbar)  14251.01     -0.00      0.00
                               -0.00  14251.01     -0.00
                                0.00     -0.00  13092.83

     exc-cor stress (kbar)  -4774.75     -0.00     -0.00
                               -0.00  -4774.75     -0.00
                               -0.00     -0.00  -4770.91

     corecor stress (kbar)  -4209.14      0.00      0.00
                                0.00  -4209.14      0.00
                                0.00      0.00  -4209.87

     ewald   stress (kbar) -49759.68     -0.00     -0.00
                               -0.00 -49759.68      0.00
                               -0.00      0.00 -51324.33

     hubbard stress (kbar)      0.00      0.00      0.00
                                0.00      0.00      0.00
                                0.00      0.00      0.00

     DFT-D   stress (kbar)      0.00      0.00      0.00
                                0.00      0.00      0.00
                                0.00      0.00      0.00

     XDM     stress (kbar)      0.00      0.00      0.00
                                0.00      0.00      0.00
                                0.00      0.00      0.00

     dft-nl  stress (kbar)      0.00      0.00      0.00
                                0.00      0.00      0.00
                                0.00      0.00      0.00

     TS-vdW  stress (kbar)      0.00      0.00      0.00
                                0.00      0.00      0.00
                                0.00      0.00      0.00



     Writing output data file ./out/v2c.save/

     init_run     :     24.11s CPU     25.47s WALL (       2 calls)
     electrons    :   1300.05s CPU   1342.97s WALL (       5 calls)
     update_pot   :     14.30s CPU     14.33s WALL (       3 calls)
     forces       :     24.59s CPU     25.41s WALL (       5 calls)
     stress       :     52.77s CPU     54.77s WALL (       5 calls)

     Called by init_run:
     wfcinit      :     15.09s CPU     15.75s WALL (       2 calls)
     wfcinit:atom :      0.23s CPU      0.21s WALL (     252 calls)
     wfcinit:wfcr :     13.91s CPU     14.43s WALL (     252 calls)
     potinit      :      2.53s CPU      2.68s WALL (       2 calls)
     hinit0       :      6.12s CPU      6.30s WALL (       2 calls)

     Called by electrons:
     c_bands      :   1139.92s CPU   1164.44s WALL (      63 calls)
     sum_band     :    140.00s CPU    150.94s WALL (      63 calls)
     v_of_rho     :      4.67s CPU      4.81s WALL (      67 calls)
     v_h          :      0.19s CPU      0.23s WALL (      67 calls)
     v_xc         :      5.14s CPU      5.23s WALL (      77 calls)
     newd         :     10.78s CPU     18.72s WALL (      67 calls)
     PAW_pot      :      5.27s CPU      5.40s WALL (      70 calls)
     mix_rho      :      0.41s CPU      0.49s WALL (      63 calls)

     Called by c_bands:
     init_us_2    :     15.91s CPU     16.07s WALL (   17766 calls)
     cegterg      :   1090.16s CPU   1110.73s WALL (    7938 calls)

     Called by sum_band:
     sum_band:wei :      0.25s CPU      0.30s WALL (      63 calls)
     sum_band:loo :    128.75s CPU    131.47s WALL (      63 calls)
     sum_band:buf :      0.69s CPU      0.58s WALL (    7938 calls)
     sum_band:ini :      7.00s CPU      7.20s WALL (    7938 calls)
     sum_band:cal :     33.27s CPU     34.32s WALL (    8316 calls)
     sum_band:bec :      1.25s CPU      1.39s WALL (    8316 calls)
     addusdens    :     10.52s CPU     18.75s WALL (      63 calls)
     addusd:skk   :      0.03s CPU      0.04s WALL (     126 calls)
     addusd:dgemm :      3.14s CPU     10.59s WALL (     126 calls)
     addusd:qvan2 :      6.36s CPU      6.43s WALL (     126 calls)

     Called by *egterg:
     cdiaghg      :     39.80s CPU     39.58s WALL (   37597 calls)
     cegterg:over :     91.81s CPU     91.98s WALL (   30163 calls)
     cegterg:upda :     60.14s CPU     59.12s WALL (   30163 calls)
     cegterg:last :    138.80s CPU    141.53s WALL (   17939 calls)
     h_psi        :    632.36s CPU    647.73s WALL (   38353 calls)
     s_psi        :    100.83s CPU    102.81s WALL (   38353 calls)
     g_psi        :      4.33s CPU      4.64s WALL (   30163 calls)

     Called by h_psi:
     h_psi:calbec :     92.98s CPU     94.66s WALL (   38353 calls)
     vloc_psi     :    436.19s CPU    447.30s WALL (   38353 calls)
     add_vuspsi   :    101.19s CPU    103.27s WALL (   38353 calls)

     General routines
     calbec       :    137.28s CPU    139.72s WALL (   49819 calls)
     fft          :      2.89s CPU      2.90s WALL (     990 calls)
     ffts         :      0.16s CPU      0.14s WALL (     130 calls)
     fftw         :    449.02s CPU    456.56s WALL (  995508 calls)
     interpolate  :      0.33s CPU      0.30s WALL (      67 calls)

     Parallel routines

     PAW routines
     PAW_pot      :      5.27s CPU      5.40s WALL (      70 calls)
     PAW_symme    :      0.00s CPU      0.00s WALL (     133 calls)

     PWSCF        :  23m38.88s CPU  24m26.97s WALL


   This run was terminated on:  14:35:38  24May2024            

=------------------------------------------------------------------------------=
   JOB DONE.
=------------------------------------------------------------------------------=
