
     Program PWSCF v.6.7MaX starts on  1Jun2024 at 22:35:45 

     This program is part of the open-source Quantum ESPRESSO suite
     for quantum simulation of materials; please cite
         "P. Giannozzi et al., J. Phys.:Condens. Matter 21 395502 (2009);
         "P. Giannozzi et al., J. Phys.:Condens. Matter 29 465901 (2017);
          URL http://www.quantum-espresso.org", 
     in publications or presentations arising from this work. More details at
     http://www.quantum-espresso.org/quote

     Parallel version (MPI), running on     1 processors

     MPI processes distributed on     1 nodes
     Waiting for input...
     Reading input from standard input
Warning: card &IONS ignored
Warning: card / ignored
Warning: card &CELL ignored
Warning: card CELL_DOFREE='IBRAV' ignored
Warning: card / ignored

     Current dimensions of program PWSCF are:
     Max number of different atomic species (ntypx) = 10
     Max number of k-points (npk) =  40000
     Max angular momentum in pseudopotentials (lmaxx) =  3

     Atomic positions and unit cell read from directory:
     ./outdir/v2c.save/
     Atomic positions from file used, from input discarded

     file C.pbe-n-kjpaw_psl.1.0.0.UPF: wavefunction(s)  2S 2P renormalized

     Subspace diagonalization in iterative solution of the eigenvalue problem:
     a serial algorithm will be used

     Message from routine setup:
     using ibrav=0 with symmetry is DISCOURAGED, use correct ibrav instead

     G-vector sticks info
     --------------------
     sticks:   dense  smooth     PW     G-vecs:    dense   smooth      PW
     Sum         745     367    121                25371     8971    1557



     bravais-lattice index     =            0
     lattice parameter (alat)  =       5.4472  a.u.
     unit-cell volume          =     218.5677 (a.u.)^3
     number of atoms/cell      =            3
     number of atomic types    =            2
     number of electrons       =        30.00
     number of Kohn-Sham states=           19
     kinetic-energy cutoff     =      45.0000  Ry
     charge density cutoff     =     360.0000  Ry
     Exchange-correlation=  SLA  PW   PBX  PBC
                           (   1   4   3   4   0   0   0)

     celldm(1)=   5.447159  celldm(2)=   0.000000  celldm(3)=   0.000000
     celldm(4)=   0.000000  celldm(5)=   0.000000  celldm(6)=   0.000000

     crystal axes: (cart. coord. in units of alat)
               a(1) = (  -0.500000  -0.866025   0.000000 )  
               a(2) = (  -0.500000   0.866025   0.000000 )  
               a(3) = (   0.000000   0.000000  -1.561512 )  

     reciprocal axes: (cart. coord. in units 2 pi/alat)
               b(1) = ( -1.000000 -0.577350 -0.000000 )  
               b(2) = ( -1.000000  0.577350  0.000000 )  
               b(3) = ( -0.000000  0.000000 -0.640405 )  


     PseudoPot. # 1 for C  read from file:
     ./C.pbe-n-kjpaw_psl.1.0.0.UPF
     MD5 check sum: 5d2aebdfa2cae82b50a7e79e9516da0f
     Pseudo is Projector augmented-wave + core cor, Zval =  4.0
     Generated using "atomic" code by A. Dal Corso  v.5.1
     Shape of augmentation charge: PSQ
     Using radial grid of 1073 points,  4 beta functions with: 
                l(1) =   0
                l(2) =   0
                l(3) =   1
                l(4) =   1
     Q(r) pseudized with 0 coefficients 


     PseudoPot. # 2 for V  read from file:
     ./v_pbe_v1.4.uspp.F.UPF
     MD5 check sum: 22b79981416ebb76fdaf5b1b8640f6fb
     Pseudo is Ultrasoft + core correction, Zval = 13.0
     Generated by new atomic code, or converted to UPF format
     Using radial grid of  853 points,  6 beta functions with: 
                l(1) =   0
                l(2) =   0
                l(3) =   1
                l(4) =   1
                l(5) =   2
                l(6) =   2
     Q(r) pseudized with  8 coefficients,  rinner =    1.100   1.100   1.100
                                                       1.100   1.100

     atomic species   valence    mass     pseudopotential
        C              4.00    12.01070     C ( 1.00)
        V             13.00    50.94150     V ( 1.00)

     12 Sym. Ops., with inversion, found


                                    s                        frac. trans.

      isym =  1     identity                                     

 cryst.   s( 1) = (     1          0          0      )
                  (     0          1          0      )
                  (     0          0          1      )

 cart.    s( 1) = (  1.0000000  0.0000000  0.0000000 )
                  (  0.0000000  1.0000000  0.0000000 )
                  (  0.0000000  0.0000000  1.0000000 )


      isym =  2     180 deg rotation - cart. axis [1,0,0]        

 cryst.   s( 2) = (     0          1          0      )
                  (     1          0          0      )
                  (     0          0         -1      )

 cart.    s( 2) = (  1.0000000  0.0000000  0.0000000 )
                  (  0.0000000 -1.0000000  0.0000000 )
                  (  0.0000000  0.0000000 -1.0000000 )


      isym =  3     120 deg rotation - cryst. axis [0,0,1]       

 cryst.   s( 3) = (    -1         -1          0      )
                  (     1          0          0      )
                  (     0          0          1      )

 cart.    s( 3) = ( -0.5000000 -0.8660254  0.0000000 )
                  (  0.8660254 -0.5000000  0.0000000 )
                  (  0.0000000  0.0000000  1.0000000 )


      isym =  4     120 deg rotation - cryst. axis [0,0,-1]      

 cryst.   s( 4) = (     0          1          0      )
                  (    -1         -1          0      )
                  (     0          0          1      )

 cart.    s( 4) = ( -0.5000000  0.8660254  0.0000000 )
                  ( -0.8660254 -0.5000000  0.0000000 )
                  (  0.0000000  0.0000000  1.0000000 )


      isym =  5     180 deg rotation - cryst. axis [0,1,0]       

 cryst.   s( 5) = (    -1         -1          0      )
                  (     0          1          0      )
                  (     0          0         -1      )

 cart.    s( 5) = ( -0.5000000 -0.8660254  0.0000000 )
                  ( -0.8660254  0.5000000  0.0000000 )
                  (  0.0000000  0.0000000 -1.0000000 )


      isym =  6     180 deg rotation - cryst. axis [1,1,0]       

 cryst.   s( 6) = (     1          0          0      )
                  (    -1         -1          0      )
                  (     0          0         -1      )

 cart.    s( 6) = ( -0.5000000  0.8660254  0.0000000 )
                  (  0.8660254  0.5000000  0.0000000 )
                  (  0.0000000  0.0000000 -1.0000000 )


      isym =  7     inversion                                    

 cryst.   s( 7) = (    -1          0          0      )
                  (     0         -1          0      )
                  (     0          0         -1      )

 cart.    s( 7) = ( -1.0000000  0.0000000  0.0000000 )
                  (  0.0000000 -1.0000000  0.0000000 )
                  (  0.0000000  0.0000000 -1.0000000 )


      isym =  8     inv. 180 deg rotation - cart. axis [1,0,0]   

 cryst.   s( 8) = (     0         -1          0      )
                  (    -1          0          0      )
                  (     0          0          1      )

 cart.    s( 8) = ( -1.0000000  0.0000000  0.0000000 )
                  (  0.0000000  1.0000000  0.0000000 )
                  (  0.0000000  0.0000000  1.0000000 )


      isym =  9     inv. 120 deg rotation - cryst. axis [0,0,1]  

 cryst.   s( 9) = (     1          1          0      )
                  (    -1          0          0      )
                  (     0          0         -1      )

 cart.    s( 9) = (  0.5000000  0.8660254  0.0000000 )
                  ( -0.8660254  0.5000000  0.0000000 )
                  (  0.0000000  0.0000000 -1.0000000 )


      isym = 10     inv. 120 deg rotation - cryst. axis [0,0,-1] 

 cryst.   s(10) = (     0         -1          0      )
                  (     1          1          0      )
                  (     0          0         -1      )

 cart.    s(10) = (  0.5000000 -0.8660254  0.0000000 )
                  (  0.8660254  0.5000000  0.0000000 )
                  (  0.0000000  0.0000000 -1.0000000 )


      isym = 11     inv. 180 deg rotation - cryst. axis [0,1,0]  

 cryst.   s(11) = (     1          1          0      )
                  (     0         -1          0      )
                  (     0          0          1      )

 cart.    s(11) = (  0.5000000  0.8660254  0.0000000 )
                  (  0.8660254 -0.5000000  0.0000000 )
                  (  0.0000000  0.0000000  1.0000000 )


      isym = 12     inv. 180 deg rotation - cryst. axis [1,1,0]  

 cryst.   s(12) = (    -1          0          0      )
                  (     1          1          0      )
                  (     0          0          1      )

 cart.    s(12) = (  0.5000000 -0.8660254  0.0000000 )
                  ( -0.8660254 -0.5000000  0.0000000 )
                  (  0.0000000  0.0000000  1.0000000 )


   Cartesian axes

     site n.     atom                  positions (alat units)
         1           V   tau(   1) = (  -0.5000000   0.2886751  -0.3984485  )
         2           V   tau(   2) = (  -0.5000000  -0.2886751  -1.1630630  )
         3           C   tau(   3) = (   0.0000000   0.0000000   0.0000000  )

   Crystallographic axes

     site n.     atom                  positions (cryst. coord.)
         1           V   tau(   1) = (  0.3333333  0.6666667  0.2551685  )
         2           V   tau(   2) = (  0.6666667  0.3333333  0.7448315  )
         3           C   tau(   3) = ( -0.0000000  0.0000000  0.0000000  )

     number of k points=   264 (tetrahedron method)
                       cart. coord. in units 2pi/alat
        k(    1) = (  -0.0000000   0.0000000   0.0000000), wk =   0.0007813
        k(    2) = (  -0.0000000   0.0000000  -0.0640405), wk =   0.0015625
        k(    3) = (  -0.0000000   0.0000000  -0.1280810), wk =   0.0015625
        k(    4) = (  -0.0000000   0.0000000  -0.1921215), wk =   0.0015625
        k(    5) = (  -0.0000000   0.0000000  -0.2561621), wk =   0.0015625
        k(    6) = (   0.0000000   0.0000000   0.3202026), wk =   0.0007813
        k(    7) = (  -0.0625000   0.0360844   0.0000000), wk =   0.0046875
        k(    8) = (  -0.0625000   0.0360844  -0.0640405), wk =   0.0046875
        k(    9) = (  -0.0625000   0.0360844  -0.1280810), wk =   0.0046875
        k(   10) = (  -0.0625000   0.0360844  -0.1921215), wk =   0.0046875
        k(   11) = (  -0.0625000   0.0360844  -0.2561621), wk =   0.0046875
        k(   12) = (  -0.0625000   0.0360844   0.3202026), wk =   0.0046875
        k(   13) = (  -0.1250000   0.0721688   0.0000000), wk =   0.0046875
        k(   14) = (  -0.1250000   0.0721688  -0.0640405), wk =   0.0046875
        k(   15) = (  -0.1250000   0.0721688  -0.1280810), wk =   0.0046875
        k(   16) = (  -0.1250000   0.0721688  -0.1921215), wk =   0.0046875
        k(   17) = (  -0.1250000   0.0721688  -0.2561621), wk =   0.0046875
        k(   18) = (  -0.1250000   0.0721688   0.3202026), wk =   0.0046875
        k(   19) = (  -0.1875000   0.1082532   0.0000000), wk =   0.0046875
        k(   20) = (  -0.1875000   0.1082532  -0.0640405), wk =   0.0046875
        k(   21) = (  -0.1875000   0.1082532  -0.1280810), wk =   0.0046875
        k(   22) = (  -0.1875000   0.1082532  -0.1921215), wk =   0.0046875
        k(   23) = (  -0.1875000   0.1082532  -0.2561621), wk =   0.0046875
        k(   24) = (  -0.1875000   0.1082532   0.3202026), wk =   0.0046875
        k(   25) = (  -0.2500000   0.1443376   0.0000000), wk =   0.0046875
        k(   26) = (  -0.2500000   0.1443376  -0.0640405), wk =   0.0046875
        k(   27) = (  -0.2500000   0.1443376  -0.1280810), wk =   0.0046875
        k(   28) = (  -0.2500000   0.1443376  -0.1921215), wk =   0.0046875
        k(   29) = (  -0.2500000   0.1443376  -0.2561621), wk =   0.0046875
        k(   30) = (  -0.2500000   0.1443376   0.3202026), wk =   0.0046875
        k(   31) = (  -0.3125000   0.1804220   0.0000000), wk =   0.0046875
        k(   32) = (  -0.3125000   0.1804220  -0.0640405), wk =   0.0046875
        k(   33) = (  -0.3125000   0.1804220  -0.1280810), wk =   0.0046875
        k(   34) = (  -0.3125000   0.1804220  -0.1921215), wk =   0.0046875
        k(   35) = (  -0.3125000   0.1804220  -0.2561621), wk =   0.0046875
        k(   36) = (  -0.3125000   0.1804220   0.3202026), wk =   0.0046875
        k(   37) = (  -0.3750000   0.2165064   0.0000000), wk =   0.0046875
        k(   38) = (  -0.3750000   0.2165064  -0.0640405), wk =   0.0046875
        k(   39) = (  -0.3750000   0.2165064  -0.1280810), wk =   0.0046875
        k(   40) = (  -0.3750000   0.2165064  -0.1921215), wk =   0.0046875
        k(   41) = (  -0.3750000   0.2165064  -0.2561621), wk =   0.0046875
        k(   42) = (  -0.3750000   0.2165064   0.3202026), wk =   0.0046875
        k(   43) = (  -0.4375000   0.2525907   0.0000000), wk =   0.0046875
        k(   44) = (  -0.4375000   0.2525907  -0.0640405), wk =   0.0046875
        k(   45) = (  -0.4375000   0.2525907  -0.1280810), wk =   0.0046875
        k(   46) = (  -0.4375000   0.2525907  -0.1921215), wk =   0.0046875
        k(   47) = (  -0.4375000   0.2525907  -0.2561621), wk =   0.0046875
        k(   48) = (  -0.4375000   0.2525907   0.3202026), wk =   0.0046875
        k(   49) = (   0.5000000  -0.2886751   0.0000000), wk =   0.0023438
        k(   50) = (   0.5000000  -0.2886751  -0.0640405), wk =   0.0046875
        k(   51) = (   0.5000000  -0.2886751  -0.1280810), wk =   0.0046875
        k(   52) = (   0.5000000  -0.2886751  -0.1921215), wk =   0.0046875
        k(   53) = (   0.5000000  -0.2886751  -0.2561621), wk =   0.0046875
        k(   54) = (   0.5000000  -0.2886751   0.3202026), wk =   0.0023438
        k(   55) = (  -0.1250000   0.0000000   0.0000000), wk =   0.0046875
        k(   56) = (  -0.1250000   0.0000000  -0.0640405), wk =   0.0093750
        k(   57) = (  -0.1250000   0.0000000  -0.1280810), wk =   0.0093750
        k(   58) = (  -0.1250000   0.0000000  -0.1921215), wk =   0.0093750
        k(   59) = (  -0.1250000   0.0000000  -0.2561621), wk =   0.0093750
        k(   60) = (  -0.1250000   0.0000000   0.3202026), wk =   0.0046875
        k(   61) = (  -0.1875000   0.0360844   0.0000000), wk =   0.0093750
        k(   62) = (  -0.1875000   0.0360844  -0.0640405), wk =   0.0093750
        k(   63) = (  -0.1875000   0.0360844  -0.1280810), wk =   0.0093750
        k(   64) = (  -0.1875000   0.0360844  -0.1921215), wk =   0.0093750
        k(   65) = (  -0.1875000   0.0360844  -0.2561621), wk =   0.0093750
        k(   66) = (  -0.1875000   0.0360844   0.3202026), wk =   0.0093750
        k(   67) = (  -0.2500000   0.0721688   0.0000000), wk =   0.0093750
        k(   68) = (  -0.2500000   0.0721688  -0.0640405), wk =   0.0093750
        k(   69) = (  -0.2500000   0.0721688  -0.1280810), wk =   0.0093750
        k(   70) = (  -0.2500000   0.0721688  -0.1921215), wk =   0.0093750
        k(   71) = (  -0.2500000   0.0721688  -0.2561621), wk =   0.0093750
        k(   72) = (  -0.2500000   0.0721688   0.3202026), wk =   0.0093750
        k(   73) = (  -0.3125000   0.1082532   0.0000000), wk =   0.0093750
        k(   74) = (  -0.3125000   0.1082532  -0.0640405), wk =   0.0093750
        k(   75) = (  -0.3125000   0.1082532  -0.1280810), wk =   0.0093750
        k(   76) = (  -0.3125000   0.1082532  -0.1921215), wk =   0.0093750
        k(   77) = (  -0.3125000   0.1082532  -0.2561621), wk =   0.0093750
        k(   78) = (  -0.3125000   0.1082532   0.3202026), wk =   0.0093750
        k(   79) = (  -0.3750000   0.1443376   0.0000000), wk =   0.0093750
        k(   80) = (  -0.3750000   0.1443376  -0.0640405), wk =   0.0093750
        k(   81) = (  -0.3750000   0.1443376  -0.1280810), wk =   0.0093750
        k(   82) = (  -0.3750000   0.1443376  -0.1921215), wk =   0.0093750
        k(   83) = (  -0.3750000   0.1443376  -0.2561621), wk =   0.0093750
        k(   84) = (  -0.3750000   0.1443376   0.3202026), wk =   0.0093750
        k(   85) = (  -0.4375000   0.1804220   0.0000000), wk =   0.0093750
        k(   86) = (  -0.4375000   0.1804220  -0.0640405), wk =   0.0093750
        k(   87) = (  -0.4375000   0.1804220  -0.1280810), wk =   0.0093750
        k(   88) = (  -0.4375000   0.1804220  -0.1921215), wk =   0.0093750
        k(   89) = (  -0.4375000   0.1804220  -0.2561621), wk =   0.0093750
        k(   90) = (  -0.4375000   0.1804220   0.3202026), wk =   0.0093750
        k(   91) = (  -0.5000000   0.2165064   0.0000000), wk =   0.0093750
        k(   92) = (  -0.5000000   0.2165064  -0.0640405), wk =   0.0093750
        k(   93) = (  -0.5000000   0.2165064  -0.1280810), wk =   0.0093750
        k(   94) = (  -0.5000000   0.2165064  -0.1921215), wk =   0.0093750
        k(   95) = (  -0.5000000   0.2165064  -0.2561621), wk =   0.0093750
        k(   96) = (  -0.5000000   0.2165064   0.3202026), wk =   0.0093750
        k(   97) = (  -0.2500000   0.0000000   0.0000000), wk =   0.0046875
        k(   98) = (  -0.2500000   0.0000000  -0.0640405), wk =   0.0093750
        k(   99) = (  -0.2500000   0.0000000  -0.1280810), wk =   0.0093750
        k(  100) = (  -0.2500000   0.0000000  -0.1921215), wk =   0.0093750
        k(  101) = (  -0.2500000   0.0000000  -0.2561621), wk =   0.0093750
        k(  102) = (  -0.2500000   0.0000000   0.3202026), wk =   0.0046875
        k(  103) = (  -0.3125000   0.0360844   0.0000000), wk =   0.0093750
        k(  104) = (  -0.3125000   0.0360844  -0.0640405), wk =   0.0093750
        k(  105) = (  -0.3125000   0.0360844  -0.1280810), wk =   0.0093750
        k(  106) = (  -0.3125000   0.0360844  -0.1921215), wk =   0.0093750
        k(  107) = (  -0.3125000   0.0360844  -0.2561621), wk =   0.0093750
        k(  108) = (  -0.3125000   0.0360844   0.3202026), wk =   0.0093750
        k(  109) = (  -0.3750000   0.0721688   0.0000000), wk =   0.0093750
        k(  110) = (  -0.3750000   0.0721688  -0.0640405), wk =   0.0093750
        k(  111) = (  -0.3750000   0.0721688  -0.1280810), wk =   0.0093750
        k(  112) = (  -0.3750000   0.0721688  -0.1921215), wk =   0.0093750
        k(  113) = (  -0.3750000   0.0721688  -0.2561621), wk =   0.0093750
        k(  114) = (  -0.3750000   0.0721688   0.3202026), wk =   0.0093750
        k(  115) = (  -0.4375000   0.1082532   0.0000000), wk =   0.0093750
        k(  116) = (  -0.4375000   0.1082532  -0.0640405), wk =   0.0093750
        k(  117) = (  -0.4375000   0.1082532  -0.1280810), wk =   0.0093750
        k(  118) = (  -0.4375000   0.1082532  -0.1921215), wk =   0.0093750
        k(  119) = (  -0.4375000   0.1082532  -0.2561621), wk =   0.0093750
        k(  120) = (  -0.4375000   0.1082532   0.3202026), wk =   0.0093750
        k(  121) = (  -0.5000000   0.1443376   0.0000000), wk =   0.0093750
        k(  122) = (  -0.5000000   0.1443376  -0.0640405), wk =   0.0093750
        k(  123) = (  -0.5000000   0.1443376  -0.1280810), wk =   0.0093750
        k(  124) = (  -0.5000000   0.1443376  -0.1921215), wk =   0.0093750
        k(  125) = (  -0.5000000   0.1443376  -0.2561621), wk =   0.0093750
        k(  126) = (  -0.5000000   0.1443376   0.3202026), wk =   0.0093750
        k(  127) = (  -0.5625000   0.1804220   0.0000000), wk =   0.0046875
        k(  128) = (  -0.5625000   0.1804220  -0.0640405), wk =   0.0093750
        k(  129) = (  -0.5625000   0.1804220  -0.1280810), wk =   0.0093750
        k(  130) = (  -0.5625000   0.1804220  -0.1921215), wk =   0.0093750
        k(  131) = (  -0.5625000   0.1804220  -0.2561621), wk =   0.0093750
        k(  132) = (  -0.5625000   0.1804220   0.3202026), wk =   0.0046875
        k(  133) = (  -0.3750000   0.0000000   0.0000000), wk =   0.0046875
        k(  134) = (  -0.3750000   0.0000000  -0.0640405), wk =   0.0093750
        k(  135) = (  -0.3750000   0.0000000  -0.1280810), wk =   0.0093750
        k(  136) = (  -0.3750000   0.0000000  -0.1921215), wk =   0.0093750
        k(  137) = (  -0.3750000   0.0000000  -0.2561621), wk =   0.0093750
        k(  138) = (  -0.3750000   0.0000000   0.3202026), wk =   0.0046875
        k(  139) = (  -0.4375000   0.0360844   0.0000000), wk =   0.0093750
        k(  140) = (  -0.4375000   0.0360844  -0.0640405), wk =   0.0093750
        k(  141) = (  -0.4375000   0.0360844  -0.1280810), wk =   0.0093750
        k(  142) = (  -0.4375000   0.0360844  -0.1921215), wk =   0.0093750
        k(  143) = (  -0.4375000   0.0360844  -0.2561621), wk =   0.0093750
        k(  144) = (  -0.4375000   0.0360844   0.3202026), wk =   0.0093750
        k(  145) = (  -0.5000000   0.0721688   0.0000000), wk =   0.0093750
        k(  146) = (  -0.5000000   0.0721688  -0.0640405), wk =   0.0093750
        k(  147) = (  -0.5000000   0.0721688  -0.1280810), wk =   0.0093750
        k(  148) = (  -0.5000000   0.0721688  -0.1921215), wk =   0.0093750
        k(  149) = (  -0.5000000   0.0721688  -0.2561621), wk =   0.0093750
        k(  150) = (  -0.5000000   0.0721688   0.3202026), wk =   0.0093750
        k(  151) = (  -0.5625000   0.1082532   0.0000000), wk =   0.0093750
        k(  152) = (  -0.5625000   0.1082532  -0.0640405), wk =   0.0093750
        k(  153) = (  -0.5625000   0.1082532  -0.1280810), wk =   0.0093750
        k(  154) = (  -0.5625000   0.1082532  -0.1921215), wk =   0.0093750
        k(  155) = (  -0.5625000   0.1082532  -0.2561621), wk =   0.0093750
        k(  156) = (  -0.5625000   0.1082532   0.3202026), wk =   0.0093750
        k(  157) = (  -0.5000000   0.0000000   0.0000000), wk =   0.0046875
        k(  158) = (  -0.5000000   0.0000000  -0.0640405), wk =   0.0093750
        k(  159) = (  -0.5000000   0.0000000  -0.1280810), wk =   0.0093750
        k(  160) = (  -0.5000000   0.0000000  -0.1921215), wk =   0.0093750
        k(  161) = (  -0.5000000   0.0000000  -0.2561621), wk =   0.0093750
        k(  162) = (  -0.5000000   0.0000000   0.3202026), wk =   0.0046875
        k(  163) = (  -0.5625000   0.0360844   0.0000000), wk =   0.0093750
        k(  164) = (  -0.5625000   0.0360844  -0.0640405), wk =   0.0093750
        k(  165) = (  -0.5625000   0.0360844  -0.1280810), wk =   0.0093750
        k(  166) = (  -0.5625000   0.0360844  -0.1921215), wk =   0.0093750
        k(  167) = (  -0.5625000   0.0360844  -0.2561621), wk =   0.0093750
        k(  168) = (  -0.5625000   0.0360844   0.3202026), wk =   0.0093750
        k(  169) = (  -0.6250000   0.0721688   0.0000000), wk =   0.0046875
        k(  170) = (  -0.6250000   0.0721688  -0.0640405), wk =   0.0093750
        k(  171) = (  -0.6250000   0.0721688  -0.1280810), wk =   0.0093750
        k(  172) = (  -0.6250000   0.0721688  -0.1921215), wk =   0.0093750
        k(  173) = (  -0.6250000   0.0721688  -0.2561621), wk =   0.0093750
        k(  174) = (  -0.6250000   0.0721688   0.3202026), wk =   0.0046875
        k(  175) = (  -0.6250000   0.0000000   0.0000000), wk =   0.0046875
        k(  176) = (  -0.6250000   0.0000000  -0.0640405), wk =   0.0093750
        k(  177) = (  -0.6250000   0.0000000  -0.1280810), wk =   0.0093750
        k(  178) = (  -0.6250000   0.0000000  -0.1921215), wk =   0.0093750
        k(  179) = (  -0.6250000   0.0000000  -0.2561621), wk =   0.0093750
        k(  180) = (  -0.6250000   0.0000000   0.3202026), wk =   0.0046875
        k(  181) = (   0.0625000   0.0360844   0.0640405), wk =   0.0046875
        k(  182) = (   0.0625000   0.0360844   0.1280810), wk =   0.0046875
        k(  183) = (   0.0625000   0.0360844   0.1921215), wk =   0.0046875
        k(  184) = (   0.0625000   0.0360844   0.2561621), wk =   0.0046875
        k(  185) = (   0.1250000   0.0721688   0.0640405), wk =   0.0046875
        k(  186) = (   0.1250000   0.0721688   0.1280810), wk =   0.0046875
        k(  187) = (   0.1250000   0.0721688   0.1921215), wk =   0.0046875
        k(  188) = (   0.1250000   0.0721688   0.2561621), wk =   0.0046875
        k(  189) = (   0.1875000   0.1082532   0.0640405), wk =   0.0046875
        k(  190) = (   0.1875000   0.1082532   0.1280810), wk =   0.0046875
        k(  191) = (   0.1875000   0.1082532   0.1921215), wk =   0.0046875
        k(  192) = (   0.1875000   0.1082532   0.2561621), wk =   0.0046875
        k(  193) = (   0.2500000   0.1443376   0.0640405), wk =   0.0046875
        k(  194) = (   0.2500000   0.1443376   0.1280810), wk =   0.0046875
        k(  195) = (   0.2500000   0.1443376   0.1921215), wk =   0.0046875
        k(  196) = (   0.2500000   0.1443376   0.2561621), wk =   0.0046875
        k(  197) = (   0.3125000   0.1804220   0.0640405), wk =   0.0046875
        k(  198) = (   0.3125000   0.1804220   0.1280810), wk =   0.0046875
        k(  199) = (   0.3125000   0.1804220   0.1921215), wk =   0.0046875
        k(  200) = (   0.3125000   0.1804220   0.2561621), wk =   0.0046875
        k(  201) = (   0.3750000   0.2165064   0.0640405), wk =   0.0046875
        k(  202) = (   0.3750000   0.2165064   0.1280810), wk =   0.0046875
        k(  203) = (   0.3750000   0.2165064   0.1921215), wk =   0.0046875
        k(  204) = (   0.3750000   0.2165064   0.2561621), wk =   0.0046875
        k(  205) = (   0.4375000   0.2525907   0.0640405), wk =   0.0046875
        k(  206) = (   0.4375000   0.2525907   0.1280810), wk =   0.0046875
        k(  207) = (   0.4375000   0.2525907   0.1921215), wk =   0.0046875
        k(  208) = (   0.4375000   0.2525907   0.2561621), wk =   0.0046875
        k(  209) = (   0.1875000   0.0360844   0.0640405), wk =   0.0093750
        k(  210) = (   0.1875000   0.0360844   0.1280810), wk =   0.0093750
        k(  211) = (   0.1875000   0.0360844   0.1921215), wk =   0.0093750
        k(  212) = (   0.1875000   0.0360844   0.2561621), wk =   0.0093750
        k(  213) = (   0.2500000   0.0721688   0.0640405), wk =   0.0093750
        k(  214) = (   0.2500000   0.0721688   0.1280810), wk =   0.0093750
        k(  215) = (   0.2500000   0.0721688   0.1921215), wk =   0.0093750
        k(  216) = (   0.2500000   0.0721688   0.2561621), wk =   0.0093750
        k(  217) = (   0.3125000   0.1082532   0.0640405), wk =   0.0093750
        k(  218) = (   0.3125000   0.1082532   0.1280810), wk =   0.0093750
        k(  219) = (   0.3125000   0.1082532   0.1921215), wk =   0.0093750
        k(  220) = (   0.3125000   0.1082532   0.2561621), wk =   0.0093750
        k(  221) = (   0.3750000   0.1443376   0.0640405), wk =   0.0093750
        k(  222) = (   0.3750000   0.1443376   0.1280810), wk =   0.0093750
        k(  223) = (   0.3750000   0.1443376   0.1921215), wk =   0.0093750
        k(  224) = (   0.3750000   0.1443376   0.2561621), wk =   0.0093750
        k(  225) = (   0.4375000   0.1804220   0.0640405), wk =   0.0093750
        k(  226) = (   0.4375000   0.1804220   0.1280810), wk =   0.0093750
        k(  227) = (   0.4375000   0.1804220   0.1921215), wk =   0.0093750
        k(  228) = (   0.4375000   0.1804220   0.2561621), wk =   0.0093750
        k(  229) = (   0.5000000   0.2165064   0.0640405), wk =   0.0093750
        k(  230) = (   0.5000000   0.2165064   0.1280810), wk =   0.0093750
        k(  231) = (   0.5000000   0.2165064   0.1921215), wk =   0.0093750
        k(  232) = (   0.5000000   0.2165064   0.2561621), wk =   0.0093750
        k(  233) = (   0.3125000   0.0360844   0.0640405), wk =   0.0093750
        k(  234) = (   0.3125000   0.0360844   0.1280810), wk =   0.0093750
        k(  235) = (   0.3125000   0.0360844   0.1921215), wk =   0.0093750
        k(  236) = (   0.3125000   0.0360844   0.2561621), wk =   0.0093750
        k(  237) = (   0.3750000   0.0721688   0.0640405), wk =   0.0093750
        k(  238) = (   0.3750000   0.0721688   0.1280810), wk =   0.0093750
        k(  239) = (   0.3750000   0.0721688   0.1921215), wk =   0.0093750
        k(  240) = (   0.3750000   0.0721688   0.2561621), wk =   0.0093750
        k(  241) = (   0.4375000   0.1082532   0.0640405), wk =   0.0093750
        k(  242) = (   0.4375000   0.1082532   0.1280810), wk =   0.0093750
        k(  243) = (   0.4375000   0.1082532   0.1921215), wk =   0.0093750
        k(  244) = (   0.4375000   0.1082532   0.2561621), wk =   0.0093750
        k(  245) = (   0.5000000   0.1443376   0.0640405), wk =   0.0093750
        k(  246) = (   0.5000000   0.1443376   0.1280810), wk =   0.0093750
        k(  247) = (   0.5000000   0.1443376   0.1921215), wk =   0.0093750
        k(  248) = (   0.5000000   0.1443376   0.2561621), wk =   0.0093750
        k(  249) = (   0.4375000   0.0360844   0.0640405), wk =   0.0093750
        k(  250) = (   0.4375000   0.0360844   0.1280810), wk =   0.0093750
        k(  251) = (   0.4375000   0.0360844   0.1921215), wk =   0.0093750
        k(  252) = (   0.4375000   0.0360844   0.2561621), wk =   0.0093750
        k(  253) = (   0.5000000   0.0721688   0.0640405), wk =   0.0093750
        k(  254) = (   0.5000000   0.0721688   0.1280810), wk =   0.0093750
        k(  255) = (   0.5000000   0.0721688   0.1921215), wk =   0.0093750
        k(  256) = (   0.5000000   0.0721688   0.2561621), wk =   0.0093750
        k(  257) = (   0.5625000   0.1082532   0.0640405), wk =   0.0093750
        k(  258) = (   0.5625000   0.1082532   0.1280810), wk =   0.0093750
        k(  259) = (   0.5625000   0.1082532   0.1921215), wk =   0.0093750
        k(  260) = (   0.5625000   0.1082532   0.2561621), wk =   0.0093750
        k(  261) = (   0.5625000   0.0360844   0.0640405), wk =   0.0093750
        k(  262) = (   0.5625000   0.0360844   0.1280810), wk =   0.0093750
        k(  263) = (   0.5625000   0.0360844   0.1921215), wk =   0.0093750
        k(  264) = (   0.5625000   0.0360844   0.2561621), wk =   0.0093750

                       cryst. coord.
        k(    1) = (   0.0000000   0.0000000   0.0000000), wk =   0.0007813
        k(    2) = (   0.0000000   0.0000000   0.1000000), wk =   0.0015625
        k(    3) = (   0.0000000   0.0000000   0.2000000), wk =   0.0015625
        k(    4) = (   0.0000000   0.0000000   0.3000000), wk =   0.0015625
        k(    5) = (   0.0000000   0.0000000   0.4000000), wk =   0.0015625
        k(    6) = (   0.0000000   0.0000000  -0.5000000), wk =   0.0007813
        k(    7) = (   0.0000000   0.0625000   0.0000000), wk =   0.0046875
        k(    8) = (   0.0000000   0.0625000   0.1000000), wk =   0.0046875
        k(    9) = (   0.0000000   0.0625000   0.2000000), wk =   0.0046875
        k(   10) = (   0.0000000   0.0625000   0.3000000), wk =   0.0046875
        k(   11) = (   0.0000000   0.0625000   0.4000000), wk =   0.0046875
        k(   12) = (   0.0000000   0.0625000  -0.5000000), wk =   0.0046875
        k(   13) = (   0.0000000   0.1250000   0.0000000), wk =   0.0046875
        k(   14) = (   0.0000000   0.1250000   0.1000000), wk =   0.0046875
        k(   15) = (   0.0000000   0.1250000   0.2000000), wk =   0.0046875
        k(   16) = (   0.0000000   0.1250000   0.3000000), wk =   0.0046875
        k(   17) = (   0.0000000   0.1250000   0.4000000), wk =   0.0046875
        k(   18) = (   0.0000000   0.1250000  -0.5000000), wk =   0.0046875
        k(   19) = (   0.0000000   0.1875000   0.0000000), wk =   0.0046875
        k(   20) = (   0.0000000   0.1875000   0.1000000), wk =   0.0046875
        k(   21) = (   0.0000000   0.1875000   0.2000000), wk =   0.0046875
        k(   22) = (   0.0000000   0.1875000   0.3000000), wk =   0.0046875
        k(   23) = (   0.0000000   0.1875000   0.4000000), wk =   0.0046875
        k(   24) = (   0.0000000   0.1875000  -0.5000000), wk =   0.0046875
        k(   25) = (   0.0000000   0.2500000   0.0000000), wk =   0.0046875
        k(   26) = (   0.0000000   0.2500000   0.1000000), wk =   0.0046875
        k(   27) = (   0.0000000   0.2500000   0.2000000), wk =   0.0046875
        k(   28) = (   0.0000000   0.2500000   0.3000000), wk =   0.0046875
        k(   29) = (   0.0000000   0.2500000   0.4000000), wk =   0.0046875
        k(   30) = (   0.0000000   0.2500000  -0.5000000), wk =   0.0046875
        k(   31) = (   0.0000000   0.3125000   0.0000000), wk =   0.0046875
        k(   32) = (   0.0000000   0.3125000   0.1000000), wk =   0.0046875
        k(   33) = (   0.0000000   0.3125000   0.2000000), wk =   0.0046875
        k(   34) = (   0.0000000   0.3125000   0.3000000), wk =   0.0046875
        k(   35) = (   0.0000000   0.3125000   0.4000000), wk =   0.0046875
        k(   36) = (   0.0000000   0.3125000  -0.5000000), wk =   0.0046875
        k(   37) = (   0.0000000   0.3750000   0.0000000), wk =   0.0046875
        k(   38) = (   0.0000000   0.3750000   0.1000000), wk =   0.0046875
        k(   39) = (   0.0000000   0.3750000   0.2000000), wk =   0.0046875
        k(   40) = (   0.0000000   0.3750000   0.3000000), wk =   0.0046875
        k(   41) = (   0.0000000   0.3750000   0.4000000), wk =   0.0046875
        k(   42) = (   0.0000000   0.3750000  -0.5000000), wk =   0.0046875
        k(   43) = (   0.0000000   0.4375000   0.0000000), wk =   0.0046875
        k(   44) = (   0.0000000   0.4375000   0.1000000), wk =   0.0046875
        k(   45) = (   0.0000000   0.4375000   0.2000000), wk =   0.0046875
        k(   46) = (   0.0000000   0.4375000   0.3000000), wk =   0.0046875
        k(   47) = (   0.0000000   0.4375000   0.4000000), wk =   0.0046875
        k(   48) = (   0.0000000   0.4375000  -0.5000000), wk =   0.0046875
        k(   49) = (  -0.0000000  -0.5000000   0.0000000), wk =   0.0023438
        k(   50) = (  -0.0000000  -0.5000000   0.1000000), wk =   0.0046875
        k(   51) = (  -0.0000000  -0.5000000   0.2000000), wk =   0.0046875
        k(   52) = (  -0.0000000  -0.5000000   0.3000000), wk =   0.0046875
        k(   53) = (  -0.0000000  -0.5000000   0.4000000), wk =   0.0046875
        k(   54) = (  -0.0000000  -0.5000000  -0.5000000), wk =   0.0023438
        k(   55) = (   0.0625000   0.0625000   0.0000000), wk =   0.0046875
        k(   56) = (   0.0625000   0.0625000   0.1000000), wk =   0.0093750
        k(   57) = (   0.0625000   0.0625000   0.2000000), wk =   0.0093750
        k(   58) = (   0.0625000   0.0625000   0.3000000), wk =   0.0093750
        k(   59) = (   0.0625000   0.0625000   0.4000000), wk =   0.0093750
        k(   60) = (   0.0625000   0.0625000  -0.5000000), wk =   0.0046875
        k(   61) = (   0.0625000   0.1250000   0.0000000), wk =   0.0093750
        k(   62) = (   0.0625000   0.1250000   0.1000000), wk =   0.0093750
        k(   63) = (   0.0625000   0.1250000   0.2000000), wk =   0.0093750
        k(   64) = (   0.0625000   0.1250000   0.3000000), wk =   0.0093750
        k(   65) = (   0.0625000   0.1250000   0.4000000), wk =   0.0093750
        k(   66) = (   0.0625000   0.1250000  -0.5000000), wk =   0.0093750
        k(   67) = (   0.0625000   0.1875000   0.0000000), wk =   0.0093750
        k(   68) = (   0.0625000   0.1875000   0.1000000), wk =   0.0093750
        k(   69) = (   0.0625000   0.1875000   0.2000000), wk =   0.0093750
        k(   70) = (   0.0625000   0.1875000   0.3000000), wk =   0.0093750
        k(   71) = (   0.0625000   0.1875000   0.4000000), wk =   0.0093750
        k(   72) = (   0.0625000   0.1875000  -0.5000000), wk =   0.0093750
        k(   73) = (   0.0625000   0.2500000   0.0000000), wk =   0.0093750
        k(   74) = (   0.0625000   0.2500000   0.1000000), wk =   0.0093750
        k(   75) = (   0.0625000   0.2500000   0.2000000), wk =   0.0093750
        k(   76) = (   0.0625000   0.2500000   0.3000000), wk =   0.0093750
        k(   77) = (   0.0625000   0.2500000   0.4000000), wk =   0.0093750
        k(   78) = (   0.0625000   0.2500000  -0.5000000), wk =   0.0093750
        k(   79) = (   0.0625000   0.3125000   0.0000000), wk =   0.0093750
        k(   80) = (   0.0625000   0.3125000   0.1000000), wk =   0.0093750
        k(   81) = (   0.0625000   0.3125000   0.2000000), wk =   0.0093750
        k(   82) = (   0.0625000   0.3125000   0.3000000), wk =   0.0093750
        k(   83) = (   0.0625000   0.3125000   0.4000000), wk =   0.0093750
        k(   84) = (   0.0625000   0.3125000  -0.5000000), wk =   0.0093750
        k(   85) = (   0.0625000   0.3750000   0.0000000), wk =   0.0093750
        k(   86) = (   0.0625000   0.3750000   0.1000000), wk =   0.0093750
        k(   87) = (   0.0625000   0.3750000   0.2000000), wk =   0.0093750
        k(   88) = (   0.0625000   0.3750000   0.3000000), wk =   0.0093750
        k(   89) = (   0.0625000   0.3750000   0.4000000), wk =   0.0093750
        k(   90) = (   0.0625000   0.3750000  -0.5000000), wk =   0.0093750
        k(   91) = (   0.0625000   0.4375000   0.0000000), wk =   0.0093750
        k(   92) = (   0.0625000   0.4375000   0.1000000), wk =   0.0093750
        k(   93) = (   0.0625000   0.4375000   0.2000000), wk =   0.0093750
        k(   94) = (   0.0625000   0.4375000   0.3000000), wk =   0.0093750
        k(   95) = (   0.0625000   0.4375000   0.4000000), wk =   0.0093750
        k(   96) = (   0.0625000   0.4375000  -0.5000000), wk =   0.0093750
        k(   97) = (   0.1250000   0.1250000   0.0000000), wk =   0.0046875
        k(   98) = (   0.1250000   0.1250000   0.1000000), wk =   0.0093750
        k(   99) = (   0.1250000   0.1250000   0.2000000), wk =   0.0093750
        k(  100) = (   0.1250000   0.1250000   0.3000000), wk =   0.0093750
        k(  101) = (   0.1250000   0.1250000   0.4000000), wk =   0.0093750
        k(  102) = (   0.1250000   0.1250000  -0.5000000), wk =   0.0046875
        k(  103) = (   0.1250000   0.1875000   0.0000000), wk =   0.0093750
        k(  104) = (   0.1250000   0.1875000   0.1000000), wk =   0.0093750
        k(  105) = (   0.1250000   0.1875000   0.2000000), wk =   0.0093750
        k(  106) = (   0.1250000   0.1875000   0.3000000), wk =   0.0093750
        k(  107) = (   0.1250000   0.1875000   0.4000000), wk =   0.0093750
        k(  108) = (   0.1250000   0.1875000  -0.5000000), wk =   0.0093750
        k(  109) = (   0.1250000   0.2500000   0.0000000), wk =   0.0093750
        k(  110) = (   0.1250000   0.2500000   0.1000000), wk =   0.0093750
        k(  111) = (   0.1250000   0.2500000   0.2000000), wk =   0.0093750
        k(  112) = (   0.1250000   0.2500000   0.3000000), wk =   0.0093750
        k(  113) = (   0.1250000   0.2500000   0.4000000), wk =   0.0093750
        k(  114) = (   0.1250000   0.2500000  -0.5000000), wk =   0.0093750
        k(  115) = (   0.1250000   0.3125000   0.0000000), wk =   0.0093750
        k(  116) = (   0.1250000   0.3125000   0.1000000), wk =   0.0093750
        k(  117) = (   0.1250000   0.3125000   0.2000000), wk =   0.0093750
        k(  118) = (   0.1250000   0.3125000   0.3000000), wk =   0.0093750
        k(  119) = (   0.1250000   0.3125000   0.4000000), wk =   0.0093750
        k(  120) = (   0.1250000   0.3125000  -0.5000000), wk =   0.0093750
        k(  121) = (   0.1250000   0.3750000   0.0000000), wk =   0.0093750
        k(  122) = (   0.1250000   0.3750000   0.1000000), wk =   0.0093750
        k(  123) = (   0.1250000   0.3750000   0.2000000), wk =   0.0093750
        k(  124) = (   0.1250000   0.3750000   0.3000000), wk =   0.0093750
        k(  125) = (   0.1250000   0.3750000   0.4000000), wk =   0.0093750
        k(  126) = (   0.1250000   0.3750000  -0.5000000), wk =   0.0093750
        k(  127) = (   0.1250000   0.4375000   0.0000000), wk =   0.0046875
        k(  128) = (   0.1250000   0.4375000   0.1000000), wk =   0.0093750
        k(  129) = (   0.1250000   0.4375000   0.2000000), wk =   0.0093750
        k(  130) = (   0.1250000   0.4375000   0.3000000), wk =   0.0093750
        k(  131) = (   0.1250000   0.4375000   0.4000000), wk =   0.0093750
        k(  132) = (   0.1250000   0.4375000  -0.5000000), wk =   0.0046875
        k(  133) = (   0.1875000   0.1875000   0.0000000), wk =   0.0046875
        k(  134) = (   0.1875000   0.1875000   0.1000000), wk =   0.0093750
        k(  135) = (   0.1875000   0.1875000   0.2000000), wk =   0.0093750
        k(  136) = (   0.1875000   0.1875000   0.3000000), wk =   0.0093750
        k(  137) = (   0.1875000   0.1875000   0.4000000), wk =   0.0093750
        k(  138) = (   0.1875000   0.1875000  -0.5000000), wk =   0.0046875
        k(  139) = (   0.1875000   0.2500000   0.0000000), wk =   0.0093750
        k(  140) = (   0.1875000   0.2500000   0.1000000), wk =   0.0093750
        k(  141) = (   0.1875000   0.2500000   0.2000000), wk =   0.0093750
        k(  142) = (   0.1875000   0.2500000   0.3000000), wk =   0.0093750
        k(  143) = (   0.1875000   0.2500000   0.4000000), wk =   0.0093750
        k(  144) = (   0.1875000   0.2500000  -0.5000000), wk =   0.0093750
        k(  145) = (   0.1875000   0.3125000   0.0000000), wk =   0.0093750
        k(  146) = (   0.1875000   0.3125000   0.1000000), wk =   0.0093750
        k(  147) = (   0.1875000   0.3125000   0.2000000), wk =   0.0093750
        k(  148) = (   0.1875000   0.3125000   0.3000000), wk =   0.0093750
        k(  149) = (   0.1875000   0.3125000   0.4000000), wk =   0.0093750
        k(  150) = (   0.1875000   0.3125000  -0.5000000), wk =   0.0093750
        k(  151) = (   0.1875000   0.3750000   0.0000000), wk =   0.0093750
        k(  152) = (   0.1875000   0.3750000   0.1000000), wk =   0.0093750
        k(  153) = (   0.1875000   0.3750000   0.2000000), wk =   0.0093750
        k(  154) = (   0.1875000   0.3750000   0.3000000), wk =   0.0093750
        k(  155) = (   0.1875000   0.3750000   0.4000000), wk =   0.0093750
        k(  156) = (   0.1875000   0.3750000  -0.5000000), wk =   0.0093750
        k(  157) = (   0.2500000   0.2500000   0.0000000), wk =   0.0046875
        k(  158) = (   0.2500000   0.2500000   0.1000000), wk =   0.0093750
        k(  159) = (   0.2500000   0.2500000   0.2000000), wk =   0.0093750
        k(  160) = (   0.2500000   0.2500000   0.3000000), wk =   0.0093750
        k(  161) = (   0.2500000   0.2500000   0.4000000), wk =   0.0093750
        k(  162) = (   0.2500000   0.2500000  -0.5000000), wk =   0.0046875
        k(  163) = (   0.2500000   0.3125000   0.0000000), wk =   0.0093750
        k(  164) = (   0.2500000   0.3125000   0.1000000), wk =   0.0093750
        k(  165) = (   0.2500000   0.3125000   0.2000000), wk =   0.0093750
        k(  166) = (   0.2500000   0.3125000   0.3000000), wk =   0.0093750
        k(  167) = (   0.2500000   0.3125000   0.4000000), wk =   0.0093750
        k(  168) = (   0.2500000   0.3125000  -0.5000000), wk =   0.0093750
        k(  169) = (   0.2500000   0.3750000   0.0000000), wk =   0.0046875
        k(  170) = (   0.2500000   0.3750000   0.1000000), wk =   0.0093750
        k(  171) = (   0.2500000   0.3750000   0.2000000), wk =   0.0093750
        k(  172) = (   0.2500000   0.3750000   0.3000000), wk =   0.0093750
        k(  173) = (   0.2500000   0.3750000   0.4000000), wk =   0.0093750
        k(  174) = (   0.2500000   0.3750000  -0.5000000), wk =   0.0046875
        k(  175) = (   0.3125000   0.3125000   0.0000000), wk =   0.0046875
        k(  176) = (   0.3125000   0.3125000   0.1000000), wk =   0.0093750
        k(  177) = (   0.3125000   0.3125000   0.2000000), wk =   0.0093750
        k(  178) = (   0.3125000   0.3125000   0.3000000), wk =   0.0093750
        k(  179) = (   0.3125000   0.3125000   0.4000000), wk =   0.0093750
        k(  180) = (   0.3125000   0.3125000  -0.5000000), wk =   0.0046875
        k(  181) = (  -0.0625000  -0.0000000  -0.1000000), wk =   0.0046875
        k(  182) = (  -0.0625000  -0.0000000  -0.2000000), wk =   0.0046875
        k(  183) = (  -0.0625000  -0.0000000  -0.3000000), wk =   0.0046875
        k(  184) = (  -0.0625000  -0.0000000  -0.4000000), wk =   0.0046875
        k(  185) = (  -0.1250000  -0.0000000  -0.1000000), wk =   0.0046875
        k(  186) = (  -0.1250000  -0.0000000  -0.2000000), wk =   0.0046875
        k(  187) = (  -0.1250000  -0.0000000  -0.3000000), wk =   0.0046875
        k(  188) = (  -0.1250000  -0.0000000  -0.4000000), wk =   0.0046875
        k(  189) = (  -0.1875000  -0.0000000  -0.1000000), wk =   0.0046875
        k(  190) = (  -0.1875000  -0.0000000  -0.2000000), wk =   0.0046875
        k(  191) = (  -0.1875000  -0.0000000  -0.3000000), wk =   0.0046875
        k(  192) = (  -0.1875000  -0.0000000  -0.4000000), wk =   0.0046875
        k(  193) = (  -0.2500000  -0.0000000  -0.1000000), wk =   0.0046875
        k(  194) = (  -0.2500000  -0.0000000  -0.2000000), wk =   0.0046875
        k(  195) = (  -0.2500000  -0.0000000  -0.3000000), wk =   0.0046875
        k(  196) = (  -0.2500000  -0.0000000  -0.4000000), wk =   0.0046875
        k(  197) = (  -0.3125000  -0.0000000  -0.1000000), wk =   0.0046875
        k(  198) = (  -0.3125000  -0.0000000  -0.2000000), wk =   0.0046875
        k(  199) = (  -0.3125000  -0.0000000  -0.3000000), wk =   0.0046875
        k(  200) = (  -0.3125000  -0.0000000  -0.4000000), wk =   0.0046875
        k(  201) = (  -0.3750000  -0.0000000  -0.1000000), wk =   0.0046875
        k(  202) = (  -0.3750000  -0.0000000  -0.2000000), wk =   0.0046875
        k(  203) = (  -0.3750000  -0.0000000  -0.3000000), wk =   0.0046875
        k(  204) = (  -0.3750000  -0.0000000  -0.4000000), wk =   0.0046875
        k(  205) = (  -0.4375000  -0.0000000  -0.1000000), wk =   0.0046875
        k(  206) = (  -0.4375000  -0.0000000  -0.2000000), wk =   0.0046875
        k(  207) = (  -0.4375000  -0.0000000  -0.3000000), wk =   0.0046875
        k(  208) = (  -0.4375000  -0.0000000  -0.4000000), wk =   0.0046875
        k(  209) = (  -0.1250000  -0.0625000  -0.1000000), wk =   0.0093750
        k(  210) = (  -0.1250000  -0.0625000  -0.2000000), wk =   0.0093750
        k(  211) = (  -0.1250000  -0.0625000  -0.3000000), wk =   0.0093750
        k(  212) = (  -0.1250000  -0.0625000  -0.4000000), wk =   0.0093750
        k(  213) = (  -0.1875000  -0.0625000  -0.1000000), wk =   0.0093750
        k(  214) = (  -0.1875000  -0.0625000  -0.2000000), wk =   0.0093750
        k(  215) = (  -0.1875000  -0.0625000  -0.3000000), wk =   0.0093750
        k(  216) = (  -0.1875000  -0.0625000  -0.4000000), wk =   0.0093750
        k(  217) = (  -0.2500000  -0.0625000  -0.1000000), wk =   0.0093750
        k(  218) = (  -0.2500000  -0.0625000  -0.2000000), wk =   0.0093750
        k(  219) = (  -0.2500000  -0.0625000  -0.3000000), wk =   0.0093750
        k(  220) = (  -0.2500000  -0.0625000  -0.4000000), wk =   0.0093750
        k(  221) = (  -0.3125000  -0.0625000  -0.1000000), wk =   0.0093750
        k(  222) = (  -0.3125000  -0.0625000  -0.2000000), wk =   0.0093750
        k(  223) = (  -0.3125000  -0.0625000  -0.3000000), wk =   0.0093750
        k(  224) = (  -0.3125000  -0.0625000  -0.4000000), wk =   0.0093750
        k(  225) = (  -0.3750000  -0.0625000  -0.1000000), wk =   0.0093750
        k(  226) = (  -0.3750000  -0.0625000  -0.2000000), wk =   0.0093750
        k(  227) = (  -0.3750000  -0.0625000  -0.3000000), wk =   0.0093750
        k(  228) = (  -0.3750000  -0.0625000  -0.4000000), wk =   0.0093750
        k(  229) = (  -0.4375000  -0.0625000  -0.1000000), wk =   0.0093750
        k(  230) = (  -0.4375000  -0.0625000  -0.2000000), wk =   0.0093750
        k(  231) = (  -0.4375000  -0.0625000  -0.3000000), wk =   0.0093750
        k(  232) = (  -0.4375000  -0.0625000  -0.4000000), wk =   0.0093750
        k(  233) = (  -0.1875000  -0.1250000  -0.1000000), wk =   0.0093750
        k(  234) = (  -0.1875000  -0.1250000  -0.2000000), wk =   0.0093750
        k(  235) = (  -0.1875000  -0.1250000  -0.3000000), wk =   0.0093750
        k(  236) = (  -0.1875000  -0.1250000  -0.4000000), wk =   0.0093750
        k(  237) = (  -0.2500000  -0.1250000  -0.1000000), wk =   0.0093750
        k(  238) = (  -0.2500000  -0.1250000  -0.2000000), wk =   0.0093750
        k(  239) = (  -0.2500000  -0.1250000  -0.3000000), wk =   0.0093750
        k(  240) = (  -0.2500000  -0.1250000  -0.4000000), wk =   0.0093750
        k(  241) = (  -0.3125000  -0.1250000  -0.1000000), wk =   0.0093750
        k(  242) = (  -0.3125000  -0.1250000  -0.2000000), wk =   0.0093750
        k(  243) = (  -0.3125000  -0.1250000  -0.3000000), wk =   0.0093750
        k(  244) = (  -0.3125000  -0.1250000  -0.4000000), wk =   0.0093750
        k(  245) = (  -0.3750000  -0.1250000  -0.1000000), wk =   0.0093750
        k(  246) = (  -0.3750000  -0.1250000  -0.2000000), wk =   0.0093750
        k(  247) = (  -0.3750000  -0.1250000  -0.3000000), wk =   0.0093750
        k(  248) = (  -0.3750000  -0.1250000  -0.4000000), wk =   0.0093750
        k(  249) = (  -0.2500000  -0.1875000  -0.1000000), wk =   0.0093750
        k(  250) = (  -0.2500000  -0.1875000  -0.2000000), wk =   0.0093750
        k(  251) = (  -0.2500000  -0.1875000  -0.3000000), wk =   0.0093750
        k(  252) = (  -0.2500000  -0.1875000  -0.4000000), wk =   0.0093750
        k(  253) = (  -0.3125000  -0.1875000  -0.1000000), wk =   0.0093750
        k(  254) = (  -0.3125000  -0.1875000  -0.2000000), wk =   0.0093750
        k(  255) = (  -0.3125000  -0.1875000  -0.3000000), wk =   0.0093750
        k(  256) = (  -0.3125000  -0.1875000  -0.4000000), wk =   0.0093750
        k(  257) = (  -0.3750000  -0.1875000  -0.1000000), wk =   0.0093750
        k(  258) = (  -0.3750000  -0.1875000  -0.2000000), wk =   0.0093750
        k(  259) = (  -0.3750000  -0.1875000  -0.3000000), wk =   0.0093750
        k(  260) = (  -0.3750000  -0.1875000  -0.4000000), wk =   0.0093750
        k(  261) = (  -0.3125000  -0.2500000  -0.1000000), wk =   0.0093750
        k(  262) = (  -0.3125000  -0.2500000  -0.2000000), wk =   0.0093750
        k(  263) = (  -0.3125000  -0.2500000  -0.3000000), wk =   0.0093750
        k(  264) = (  -0.3125000  -0.2500000  -0.4000000), wk =   0.0093750

     Dense  grid:    25371 G-vectors     FFT dimensions: (  36,  36,  54)

     Smooth grid:     8971 G-vectors     FFT dimensions: (  24,  24,  40)

     Dynamical RAM for                 wfc:       0.32 MB

     Dynamical RAM for     wfc (w. buffer):       0.32 MB

     Dynamical RAM for           str. fact:       0.77 MB

     Dynamical RAM for           local pot:       0.00 MB

     Dynamical RAM for          nlocal pot:       0.75 MB

     Dynamical RAM for                qrad:       3.05 MB

     Dynamical RAM for          rho,v,vnew:       2.76 MB

     Dynamical RAM for           G-vectors:       1.52 MB

     Dynamical RAM for          h,s,v(r/c):       0.07 MB

     Dynamical RAM for          <psi|beta>:       0.01 MB

     Dynamical RAM for                 psi:       0.65 MB

     Dynamical RAM for                hpsi:       0.65 MB

     Dynamical RAM for                spsi:       0.65 MB

     Dynamical RAM for      wfcinit/wfcrot:       0.83 MB

     Dynamical RAM for           addusdens:      72.78 MB

     Estimated static dynamical RAM per process >      13.01 MB

     Estimated max dynamical RAM per process >      85.79 MB

     Check: negative core charge=   -0.000007

     The potential is recalculated from file :
     ./outdir/v2c.save/charge-density


     negative rho (up, down):  1.844E-03 0.000E+00
     Starting wfcs are   24 randomized atomic wfcs
     Checking if some PAW data can be deallocated... 

     Band Structure Calculation
     Davidson diagonalization with overlap

     Computing kpt #:     1  of   264
     total cpu time spent up to now is        3.8 secs

     Computing kpt #:     2  of   264
     total cpu time spent up to now is        5.1 secs

     Computing kpt #:     3  of   264
     total cpu time spent up to now is        6.4 secs

     Computing kpt #:     4  of   264
     total cpu time spent up to now is        7.7 secs

     Computing kpt #:     5  of   264
     total cpu time spent up to now is        9.0 secs

     Computing kpt #:     6  of   264
     total cpu time spent up to now is       10.1 secs

     Computing kpt #:     7  of   264
     total cpu time spent up to now is       11.8 secs

     Computing kpt #:     8  of   264
     total cpu time spent up to now is       13.4 secs

     Computing kpt #:     9  of   264
     total cpu time spent up to now is       15.2 secs

     Computing kpt #:    10  of   264
     total cpu time spent up to now is       16.7 secs

     Computing kpt #:    11  of   264
     total cpu time spent up to now is       18.4 secs

     Computing kpt #:    12  of   264
     total cpu time spent up to now is       19.6 secs

     Computing kpt #:    13  of   264
     total cpu time spent up to now is       20.4 secs

     Computing kpt #:    14  of   264
     total cpu time spent up to now is       21.8 secs

     Computing kpt #:    15  of   264
     total cpu time spent up to now is       24.0 secs

     Computing kpt #:    16  of   264
     total cpu time spent up to now is       26.4 secs

     Computing kpt #:    17  of   264
     total cpu time spent up to now is       29.3 secs

     Computing kpt #:    18  of   264
     total cpu time spent up to now is       31.7 secs

     Computing kpt #:    19  of   264
     total cpu time spent up to now is       33.7 secs

     Computing kpt #:    20  of   264
     total cpu time spent up to now is       36.0 secs

     Computing kpt #:    21  of   264
     total cpu time spent up to now is       38.4 secs

     Computing kpt #:    22  of   264
     total cpu time spent up to now is       41.0 secs

     Computing kpt #:    23  of   264
     total cpu time spent up to now is       43.3 secs

     Computing kpt #:    24  of   264
     total cpu time spent up to now is       45.4 secs

     Computing kpt #:    25  of   264
     total cpu time spent up to now is       47.4 secs

     Computing kpt #:    26  of   264
     total cpu time spent up to now is       49.4 secs

     Computing kpt #:    27  of   264
     total cpu time spent up to now is       50.9 secs

     Computing kpt #:    28  of   264
     total cpu time spent up to now is       52.4 secs

     Computing kpt #:    29  of   264
     total cpu time spent up to now is       54.0 secs

     Computing kpt #:    30  of   264
     total cpu time spent up to now is       55.7 secs

     Computing kpt #:    31  of   264
     total cpu time spent up to now is       57.0 secs

     Computing kpt #:    32  of   264
     total cpu time spent up to now is       58.3 secs

     Computing kpt #:    33  of   264
     total cpu time spent up to now is       59.7 secs

     Computing kpt #:    34  of   264
     total cpu time spent up to now is       61.1 secs

     Computing kpt #:    35  of   264
     total cpu time spent up to now is       62.8 secs

     Computing kpt #:    36  of   264
     total cpu time spent up to now is       64.2 secs

     Computing kpt #:    37  of   264
     total cpu time spent up to now is       65.7 secs

     Computing kpt #:    38  of   264
     total cpu time spent up to now is       67.0 secs

     Computing kpt #:    39  of   264
     total cpu time spent up to now is       68.7 secs

     Computing kpt #:    40  of   264
     total cpu time spent up to now is       70.5 secs

     Computing kpt #:    41  of   264
     total cpu time spent up to now is       72.2 secs

     Computing kpt #:    42  of   264
     total cpu time spent up to now is       74.2 secs

     Computing kpt #:    43  of   264
     total cpu time spent up to now is       75.4 secs

     Computing kpt #:    44  of   264
     total cpu time spent up to now is       76.4 secs

     Computing kpt #:    45  of   264
     total cpu time spent up to now is       78.0 secs

     Computing kpt #:    46  of   264
     total cpu time spent up to now is       80.1 secs

     Computing kpt #:    47  of   264
     total cpu time spent up to now is       81.8 secs

     Computing kpt #:    48  of   264
     total cpu time spent up to now is       83.6 secs

     Computing kpt #:    49  of   264
     total cpu time spent up to now is       85.1 secs

     Computing kpt #:    50  of   264
     total cpu time spent up to now is       86.6 secs

     Computing kpt #:    51  of   264
     total cpu time spent up to now is       88.2 secs

     Computing kpt #:    52  of   264
     total cpu time spent up to now is       89.9 secs

     Computing kpt #:    53  of   264
     total cpu time spent up to now is       91.6 secs

     Computing kpt #:    54  of   264
     total cpu time spent up to now is       93.1 secs

     Computing kpt #:    55  of   264
     total cpu time spent up to now is       94.7 secs

     Computing kpt #:    56  of   264
     total cpu time spent up to now is       96.4 secs

     Computing kpt #:    57  of   264
     total cpu time spent up to now is       98.4 secs

     Computing kpt #:    58  of   264
     total cpu time spent up to now is      100.4 secs

     Computing kpt #:    59  of   264
     total cpu time spent up to now is      102.0 secs

     Computing kpt #:    60  of   264
     total cpu time spent up to now is      103.6 secs

     Computing kpt #:    61  of   264
     total cpu time spent up to now is      105.6 secs

     Computing kpt #:    62  of   264
     total cpu time spent up to now is      107.0 secs

     Computing kpt #:    63  of   264
     total cpu time spent up to now is      108.3 secs

     Computing kpt #:    64  of   264
     total cpu time spent up to now is      109.9 secs

     Computing kpt #:    65  of   264
     total cpu time spent up to now is      111.6 secs

     Computing kpt #:    66  of   264
     total cpu time spent up to now is      113.7 secs

     Computing kpt #:    67  of   264
     total cpu time spent up to now is      115.4 secs

     Computing kpt #:    68  of   264
     total cpu time spent up to now is      117.0 secs

     Computing kpt #:    69  of   264
     total cpu time spent up to now is      119.0 secs

     Computing kpt #:    70  of   264
     total cpu time spent up to now is      120.9 secs

     Computing kpt #:    71  of   264
     total cpu time spent up to now is      122.5 secs

     Computing kpt #:    72  of   264
     total cpu time spent up to now is      124.2 secs

     Computing kpt #:    73  of   264
     total cpu time spent up to now is      125.6 secs

     Computing kpt #:    74  of   264
     total cpu time spent up to now is      127.1 secs

     Computing kpt #:    75  of   264
     total cpu time spent up to now is      128.6 secs

     Computing kpt #:    76  of   264
     total cpu time spent up to now is      130.0 secs

     Computing kpt #:    77  of   264
     total cpu time spent up to now is      131.5 secs

     Computing kpt #:    78  of   264
     total cpu time spent up to now is      133.2 secs

     Computing kpt #:    79  of   264
     total cpu time spent up to now is      134.7 secs

     Computing kpt #:    80  of   264
     total cpu time spent up to now is      136.6 secs

     Computing kpt #:    81  of   264
     total cpu time spent up to now is      138.5 secs

     Computing kpt #:    82  of   264
     total cpu time spent up to now is      140.3 secs

     Computing kpt #:    83  of   264
     total cpu time spent up to now is      141.7 secs

     Computing kpt #:    84  of   264
     total cpu time spent up to now is      143.1 secs

     Computing kpt #:    85  of   264
     total cpu time spent up to now is      144.6 secs

     Computing kpt #:    86  of   264
     total cpu time spent up to now is      146.1 secs

     Computing kpt #:    87  of   264
     total cpu time spent up to now is      148.2 secs

     Computing kpt #:    88  of   264
     total cpu time spent up to now is      150.9 secs

     Computing kpt #:    89  of   264
     total cpu time spent up to now is      153.4 secs

     Computing kpt #:    90  of   264
     total cpu time spent up to now is      156.1 secs

     Computing kpt #:    91  of   264
     total cpu time spent up to now is      158.0 secs

     Computing kpt #:    92  of   264
     total cpu time spent up to now is      160.0 secs

     Computing kpt #:    93  of   264
     total cpu time spent up to now is      162.1 secs

     Computing kpt #:    94  of   264
     total cpu time spent up to now is      164.0 secs

     Computing kpt #:    95  of   264
     total cpu time spent up to now is      166.4 secs

     Computing kpt #:    96  of   264
     total cpu time spent up to now is      168.6 secs

     Computing kpt #:    97  of   264
     total cpu time spent up to now is      170.3 secs

     Computing kpt #:    98  of   264
     total cpu time spent up to now is      172.1 secs

     Computing kpt #:    99  of   264
     total cpu time spent up to now is      173.8 secs

     Computing kpt #:   100  of   264
     total cpu time spent up to now is      175.8 secs

     Computing kpt #:   101  of   264
     total cpu time spent up to now is      178.3 secs

     Computing kpt #:   102  of   264
     total cpu time spent up to now is      180.4 secs

     Computing kpt #:   103  of   264
     total cpu time spent up to now is      181.6 secs

     Computing kpt #:   104  of   264
     total cpu time spent up to now is      183.5 secs

     Computing kpt #:   105  of   264
     total cpu time spent up to now is      185.2 secs

     Computing kpt #:   106  of   264
     total cpu time spent up to now is      187.0 secs

     Computing kpt #:   107  of   264
     total cpu time spent up to now is      188.7 secs

     Computing kpt #:   108  of   264
     total cpu time spent up to now is      190.7 secs

     Computing kpt #:   109  of   264
     total cpu time spent up to now is      192.3 secs

     Computing kpt #:   110  of   264
     total cpu time spent up to now is      193.9 secs

     Computing kpt #:   111  of   264
     total cpu time spent up to now is      195.9 secs

     Computing kpt #:   112  of   264
     total cpu time spent up to now is      197.6 secs

     Computing kpt #:   113  of   264
     total cpu time spent up to now is      199.2 secs

     Computing kpt #:   114  of   264
     total cpu time spent up to now is      200.8 secs

     Computing kpt #:   115  of   264
     total cpu time spent up to now is      202.2 secs

     Computing kpt #:   116  of   264
     total cpu time spent up to now is      203.9 secs

     Computing kpt #:   117  of   264
     total cpu time spent up to now is      205.8 secs

     Computing kpt #:   118  of   264
     total cpu time spent up to now is      208.0 secs

     Computing kpt #:   119  of   264
     total cpu time spent up to now is      209.9 secs

     Computing kpt #:   120  of   264
     total cpu time spent up to now is      211.9 secs

     Computing kpt #:   121  of   264
     total cpu time spent up to now is      213.5 secs

     Computing kpt #:   122  of   264
     total cpu time spent up to now is      215.2 secs

     Computing kpt #:   123  of   264
     total cpu time spent up to now is      217.4 secs

     Computing kpt #:   124  of   264
     total cpu time spent up to now is      219.3 secs

     Computing kpt #:   125  of   264
     total cpu time spent up to now is      221.0 secs

     Computing kpt #:   126  of   264
     total cpu time spent up to now is      222.7 secs

     Computing kpt #:   127  of   264
     total cpu time spent up to now is      224.3 secs

     Computing kpt #:   128  of   264
     total cpu time spent up to now is      225.9 secs

     Computing kpt #:   129  of   264
     total cpu time spent up to now is      227.7 secs

     Computing kpt #:   130  of   264
     total cpu time spent up to now is      229.3 secs

     Computing kpt #:   131  of   264
     total cpu time spent up to now is      230.9 secs

     Computing kpt #:   132  of   264
     total cpu time spent up to now is      232.4 secs

     Computing kpt #:   133  of   264
     total cpu time spent up to now is      233.6 secs

     Computing kpt #:   134  of   264
     total cpu time spent up to now is      234.9 secs

     Computing kpt #:   135  of   264
     total cpu time spent up to now is      236.1 secs

     Computing kpt #:   136  of   264
     total cpu time spent up to now is      237.6 secs

     Computing kpt #:   137  of   264
     total cpu time spent up to now is      238.8 secs

     Computing kpt #:   138  of   264
     total cpu time spent up to now is      239.7 secs

     Computing kpt #:   139  of   264
     total cpu time spent up to now is      240.7 secs

     Computing kpt #:   140  of   264
     total cpu time spent up to now is      242.1 secs

     Computing kpt #:   141  of   264
     total cpu time spent up to now is      243.3 secs

     Computing kpt #:   142  of   264
     total cpu time spent up to now is      244.9 secs

     Computing kpt #:   143  of   264
     total cpu time spent up to now is      246.4 secs

     Computing kpt #:   144  of   264
     total cpu time spent up to now is      247.9 secs

     Computing kpt #:   145  of   264
     total cpu time spent up to now is      249.4 secs

     Computing kpt #:   146  of   264
     total cpu time spent up to now is      250.9 secs

     Computing kpt #:   147  of   264
     total cpu time spent up to now is      252.5 secs

     Computing kpt #:   148  of   264
     total cpu time spent up to now is      254.1 secs

     Computing kpt #:   149  of   264
     total cpu time spent up to now is      255.7 secs

     Computing kpt #:   150  of   264
     total cpu time spent up to now is      257.2 secs

     Computing kpt #:   151  of   264
     total cpu time spent up to now is      258.8 secs

     Computing kpt #:   152  of   264
     total cpu time spent up to now is      260.3 secs

     Computing kpt #:   153  of   264
     total cpu time spent up to now is      261.9 secs

     Computing kpt #:   154  of   264
     total cpu time spent up to now is      263.5 secs

     Computing kpt #:   155  of   264
     total cpu time spent up to now is      265.2 secs

     Computing kpt #:   156  of   264
     total cpu time spent up to now is      266.7 secs

     Computing kpt #:   157  of   264
     total cpu time spent up to now is      267.9 secs

     Computing kpt #:   158  of   264
     total cpu time spent up to now is      269.3 secs

     Computing kpt #:   159  of   264
     total cpu time spent up to now is      270.4 secs

     Computing kpt #:   160  of   264
     total cpu time spent up to now is      271.7 secs

     Computing kpt #:   161  of   264
     total cpu time spent up to now is      273.2 secs

     Computing kpt #:   162  of   264
     total cpu time spent up to now is      274.6 secs

     Computing kpt #:   163  of   264
     total cpu time spent up to now is      276.0 secs

     Computing kpt #:   164  of   264
     total cpu time spent up to now is      277.5 secs

     Computing kpt #:   165  of   264
     total cpu time spent up to now is      279.0 secs

     Computing kpt #:   166  of   264
     total cpu time spent up to now is      280.5 secs

     Computing kpt #:   167  of   264
     total cpu time spent up to now is      282.0 secs

     Computing kpt #:   168  of   264
     total cpu time spent up to now is      283.3 secs

     Computing kpt #:   169  of   264
     total cpu time spent up to now is      285.1 secs

     Computing kpt #:   170  of   264
     total cpu time spent up to now is      286.8 secs

     Computing kpt #:   171  of   264
     total cpu time spent up to now is      288.5 secs

     Computing kpt #:   172  of   264
     total cpu time spent up to now is      290.2 secs

     Computing kpt #:   173  of   264
     total cpu time spent up to now is      291.8 secs

     Computing kpt #:   174  of   264
     total cpu time spent up to now is      293.4 secs

     Computing kpt #:   175  of   264
     total cpu time spent up to now is      295.3 secs

     Computing kpt #:   176  of   264
     total cpu time spent up to now is      297.8 secs

     Computing kpt #:   177  of   264
     total cpu time spent up to now is      300.2 secs

     Computing kpt #:   178  of   264
     total cpu time spent up to now is      302.2 secs

     Computing kpt #:   179  of   264
     total cpu time spent up to now is      303.8 secs

     Computing kpt #:   180  of   264
     total cpu time spent up to now is      305.3 secs

     Computing kpt #:   181  of   264
     total cpu time spent up to now is      307.5 secs

     Computing kpt #:   182  of   264
     total cpu time spent up to now is      309.3 secs

     Computing kpt #:   183  of   264
     total cpu time spent up to now is      311.0 secs

     Computing kpt #:   184  of   264
     total cpu time spent up to now is      312.8 secs

     Computing kpt #:   185  of   264
     total cpu time spent up to now is      314.5 secs

     Computing kpt #:   186  of   264
     total cpu time spent up to now is      316.4 secs

     Computing kpt #:   187  of   264
     total cpu time spent up to now is      318.1 secs

     Computing kpt #:   188  of   264
     total cpu time spent up to now is      319.9 secs

     Computing kpt #:   189  of   264
     total cpu time spent up to now is      321.6 secs

     Computing kpt #:   190  of   264
     total cpu time spent up to now is      323.3 secs

     Computing kpt #:   191  of   264
     total cpu time spent up to now is      325.1 secs

     Computing kpt #:   192  of   264
     total cpu time spent up to now is      327.0 secs

     Computing kpt #:   193  of   264
     total cpu time spent up to now is      328.6 secs

     Computing kpt #:   194  of   264
     total cpu time spent up to now is      330.4 secs

     Computing kpt #:   195  of   264
     total cpu time spent up to now is      332.1 secs

     Computing kpt #:   196  of   264
     total cpu time spent up to now is      333.9 secs

     Computing kpt #:   197  of   264
     total cpu time spent up to now is      335.3 secs

     Computing kpt #:   198  of   264
     total cpu time spent up to now is      336.8 secs

     Computing kpt #:   199  of   264
     total cpu time spent up to now is      338.4 secs

     Computing kpt #:   200  of   264
     total cpu time spent up to now is      340.1 secs

     Computing kpt #:   201  of   264
     total cpu time spent up to now is      341.7 secs

     Computing kpt #:   202  of   264
     total cpu time spent up to now is      343.5 secs

     Computing kpt #:   203  of   264
     total cpu time spent up to now is      345.2 secs

     Computing kpt #:   204  of   264
     total cpu time spent up to now is      346.8 secs

     Computing kpt #:   205  of   264
     total cpu time spent up to now is      348.4 secs

     Computing kpt #:   206  of   264
     total cpu time spent up to now is      350.2 secs

     Computing kpt #:   207  of   264
     total cpu time spent up to now is      351.6 secs

     Computing kpt #:   208  of   264
     total cpu time spent up to now is      353.2 secs

     Computing kpt #:   209  of   264
     total cpu time spent up to now is      354.8 secs

     Computing kpt #:   210  of   264
     total cpu time spent up to now is      356.4 secs

     Computing kpt #:   211  of   264
     total cpu time spent up to now is      357.9 secs

     Computing kpt #:   212  of   264
     total cpu time spent up to now is      359.5 secs

     Computing kpt #:   213  of   264
     total cpu time spent up to now is      360.9 secs

     Computing kpt #:   214  of   264
     total cpu time spent up to now is      362.4 secs

     Computing kpt #:   215  of   264
     total cpu time spent up to now is      363.9 secs

     Computing kpt #:   216  of   264
     total cpu time spent up to now is      365.6 secs

     Computing kpt #:   217  of   264
     total cpu time spent up to now is      366.9 secs

     Computing kpt #:   218  of   264
     total cpu time spent up to now is      368.1 secs

     Computing kpt #:   219  of   264
     total cpu time spent up to now is      369.4 secs

     Computing kpt #:   220  of   264
     total cpu time spent up to now is      370.3 secs

     Computing kpt #:   221  of   264
     total cpu time spent up to now is      371.6 secs

     Computing kpt #:   222  of   264
     total cpu time spent up to now is      372.9 secs

     Computing kpt #:   223  of   264
     total cpu time spent up to now is      374.4 secs

     Computing kpt #:   224  of   264
     total cpu time spent up to now is      375.9 secs

     Computing kpt #:   225  of   264
     total cpu time spent up to now is      377.4 secs

     Computing kpt #:   226  of   264
     total cpu time spent up to now is      378.9 secs

     Computing kpt #:   227  of   264
     total cpu time spent up to now is      380.7 secs

     Computing kpt #:   228  of   264
     total cpu time spent up to now is      382.4 secs

     Computing kpt #:   229  of   264
     total cpu time spent up to now is      383.9 secs

     Computing kpt #:   230  of   264
     total cpu time spent up to now is      385.4 secs

     Computing kpt #:   231  of   264
     total cpu time spent up to now is      386.9 secs

     Computing kpt #:   232  of   264
     total cpu time spent up to now is      388.5 secs

     Computing kpt #:   233  of   264
     total cpu time spent up to now is      389.7 secs

     Computing kpt #:   234  of   264
     total cpu time spent up to now is      391.1 secs

     Computing kpt #:   235  of   264
     total cpu time spent up to now is      392.5 secs

     Computing kpt #:   236  of   264
     total cpu time spent up to now is      394.1 secs

     Computing kpt #:   237  of   264
     total cpu time spent up to now is      395.3 secs

     Computing kpt #:   238  of   264
     total cpu time spent up to now is      396.5 secs

     Computing kpt #:   239  of   264
     total cpu time spent up to now is      398.0 secs

     Computing kpt #:   240  of   264
     total cpu time spent up to now is      399.6 secs

     Computing kpt #:   241  of   264
     total cpu time spent up to now is      400.6 secs

     Computing kpt #:   242  of   264
     total cpu time spent up to now is      401.6 secs

     Computing kpt #:   243  of   264
     total cpu time spent up to now is      403.2 secs

     Computing kpt #:   244  of   264
     total cpu time spent up to now is      404.7 secs

     Computing kpt #:   245  of   264
     total cpu time spent up to now is      406.1 secs

     Computing kpt #:   246  of   264
     total cpu time spent up to now is      407.6 secs

     Computing kpt #:   247  of   264
     total cpu time spent up to now is      409.5 secs

     Computing kpt #:   248  of   264
     total cpu time spent up to now is      411.0 secs

     Computing kpt #:   249  of   264
     total cpu time spent up to now is      412.4 secs

     Computing kpt #:   250  of   264
     total cpu time spent up to now is      413.9 secs

     Computing kpt #:   251  of   264
     total cpu time spent up to now is      415.6 secs

     Computing kpt #:   252  of   264
     total cpu time spent up to now is      417.3 secs

     Computing kpt #:   253  of   264
     total cpu time spent up to now is      418.8 secs

     Computing kpt #:   254  of   264
     total cpu time spent up to now is      420.3 secs

     Computing kpt #:   255  of   264
     total cpu time spent up to now is      422.4 secs

     Computing kpt #:   256  of   264
     total cpu time spent up to now is      424.1 secs

     Computing kpt #:   257  of   264
     total cpu time spent up to now is      425.7 secs

     Computing kpt #:   258  of   264
     total cpu time spent up to now is      427.4 secs

     Computing kpt #:   259  of   264
     total cpu time spent up to now is      428.9 secs

     Computing kpt #:   260  of   264
     total cpu time spent up to now is      430.4 secs

     Computing kpt #:   261  of   264
     total cpu time spent up to now is      431.9 secs

     Computing kpt #:   262  of   264
     total cpu time spent up to now is      433.3 secs

     Computing kpt #:   263  of   264
     total cpu time spent up to now is      434.7 secs

     Computing kpt #:   264  of   264
     total cpu time spent up to now is      436.3 secs

     ethr =  2.00E-12,  avg # of iterations = 55.0

     total cpu time spent up to now is      437.1 secs

     End of band structure calculation

          k =-0.0000 0.0000 0.0000 (  1105 PWs)   bands (ev):

   -48.0959 -47.9852 -22.1897 -21.7542 -21.7542 -21.6732 -21.6732 -21.5840
     3.6470  10.5533  13.3881  13.3881  14.1295  16.2226  16.3444  16.3444
    16.6414  16.6414  17.5718

     occupation numbers 
     1.0000   1.0000   1.0000   1.0000   1.0000   1.0000   1.0000   1.0000
     1.0000   1.0000   1.0000   1.0000   1.0000  -0.0163   0.0000   0.0000
     0.0000   0.0000   0.0000

          k =-0.0000 0.0000-0.0640 (  1104 PWs)   bands (ev):

   -48.0933 -47.9879 -22.1754 -21.7523 -21.7523 -21.6752 -21.6752 -21.5994
     3.6781  10.4617  13.3624  13.3624  14.1873  16.1611  16.3107  16.3107
    16.6780  16.6780  17.6519

     occupation numbers 
     1.0000   1.0000   1.0000   1.0000   1.0000   1.0000   1.0000   1.0000
     1.0000   1.0000   1.0000   1.0000   1.0000   0.7725  -0.0583   0.0000
     0.0000   0.0000   0.0000

          k =-0.0000 0.0000-0.1281 (  1104 PWs)   bands (ev):

   -48.0855 -47.9958 -22.1337 -21.7468 -21.7468 -21.6807 -21.6807 -21.6438
     3.7619  10.2277  13.2990  13.2990  14.3466  15.9997  16.1773  16.1773
    16.8668  16.8668  17.8145

     occupation numbers 
     1.0000   1.0000   1.0000   1.0000   1.0000   1.0000   1.0000   1.0000
     1.0000   1.0000   1.0000   1.0000   1.0000   1.0002   0.4739   0.2074
     0.0000   0.0000   0.0000

          k =-0.0000 0.0000-0.1921 (  1122 PWs)   bands (ev):

   -48.0734 -48.0080 -22.0685 -21.7383 -21.7383 -21.7125 -21.6892 -21.6892
     3.8709   9.9471  13.2274  13.2274  14.5768  15.7766  16.0212  16.0212
    17.1658  17.1658  17.9464

     occupation numbers 
     1.0000   1.0000   1.0000   1.0000   1.0000   1.0000   1.0000   1.0000
     1.0000   1.0000   1.0000   1.0000   1.0000   1.0000   1.0218   1.0744
     0.0000   0.0000   0.0000

          k =-0.0000 0.0000-0.2562 (  1104 PWs)   bands (ev):

   -48.0583 -48.0233 -21.9856 -21.7981 -21.7282 -21.7282 -21.6994 -21.6994
     3.9640   9.7244  13.1740  13.1740  14.8400  15.5240  15.9096  15.9096
    17.4724  17.4724  17.9805

     occupation numbers 
     1.0000   1.0000   1.0000   1.0000   1.0000   1.0000   1.0000   1.0000
     1.0000   1.0000   1.0000   1.0000   1.0000   1.0000   1.0000   1.0000
     0.0000   0.0000   0.0000

          k = 0.0000 0.0000 0.3202 (  1134 PWs)   bands (ev):

   -48.0447 -48.0370 -21.8993 -21.8855 -21.7213 -21.7213 -21.7063 -21.7063
     4.0009   9.6400  13.1545  13.1545  15.0191  15.3497  15.8698  15.8698
    17.6344  17.6344  17.9477

     occupation numbers 
     1.0000   1.0000   1.0000   1.0000   1.0000   1.0000   1.0000   1.0000
     1.0000   1.0000   1.0000   1.0000   1.0000   1.0000   1.0000   1.0000
     0.0000   0.0000   0.0000

          k =-0.0625 0.0361 0.0000 (  1102 PWs)   bands (ev):

   -48.0930 -47.9842 -22.1823 -21.7688 -21.7596 -21.6873 -21.6744 -21.5869
     3.7142  10.6380  13.1093  13.3924  14.2412  16.1689  16.2944  16.3954
    16.5563  16.5851  17.6791

     occupation numbers 
     1.0000   1.0000   1.0000   1.0000   1.0000   1.0000   1.0000   1.0000
     1.0000   1.0000   1.0000   1.0000   1.0000   0.7643   0.0000   0.0000
     0.0000   0.0000   0.0000

          k =-0.0625 0.0361-0.0640 (  1104 PWs)   bands (ev):

   -48.0904 -47.9868 -22.1686 -21.7675 -21.7568 -21.6895 -21.6772 -21.6007
     3.7439  10.5471  13.0928  13.4046  14.2615  16.0695  16.2724  16.3665
    16.5089  16.7544  17.7393

     occupation numbers 
     1.0000   1.0000   1.0000   1.0000   1.0000   1.0000   1.0000   1.0000
[...]
     0.0000   0.0000   0.0000

          k = 0.4375 0.1804 0.1921 (  1120 PWs)   bands (ev):

   -48.0060 -47.9787 -22.1403 -22.0832 -21.8645 -21.8209 -21.7577 -21.6917
     5.4760  10.3583  12.2083  12.9300  14.1027  14.9560  15.9235  17.4086
    17.8183  18.1211  18.3781

     occupation numbers 
     1.0000   1.0000   1.0000   1.0000   1.0000   1.0000   1.0000   1.0000
     1.0000   1.0000   1.0000   1.0000   1.0000   1.0000   1.0000   0.0000
     0.0000   0.0000   0.0000

          k = 0.4375 0.1804 0.2562 (  1121 PWs)   bands (ev):

   -47.9997 -47.9850 -22.1403 -22.1187 -21.8379 -21.7882 -21.7694 -21.7034
     5.4618  10.4268  12.1525  12.9972  14.3773  14.9637  15.8343  16.9889
    17.7309  18.1452  18.2973

     occupation numbers 
     1.0000   1.0000   1.0000   1.0000   1.0000   1.0000   1.0000   1.0000
     1.0000   1.0000   1.0000   1.0000   1.0000   1.0000   1.0000   0.0000
     0.0000   0.0000   0.0000

          k = 0.5000 0.2165 0.0640 (  1118 PWs)   bands (ev):

   -48.0059 -47.9711 -22.1388 -22.0297 -21.9155 -21.8762 -21.7359 -21.7198
     5.6256  10.2530  12.4036  12.7904  13.6239  14.7525  15.9882  18.0230
    18.1412  18.4752  18.8844

     occupation numbers 
     1.0000   1.0000   1.0000   1.0000   1.0000   1.0000   1.0000   1.0000
     1.0000   1.0000   1.0000   1.0000   1.0000   1.0000   1.0000   0.0000
     0.0000   0.0000   0.0000

          k = 0.5000 0.2165 0.1281 (  1111 PWs)   bands (ev):

   -48.0033 -47.9737 -22.1559 -22.0618 -21.8908 -21.8502 -21.7482 -21.7083
     5.6208  10.2432  12.3301  12.8509  13.8274  14.8536  15.9849  17.6769
    18.1921  18.3126  18.6788

     occupation numbers 
     1.0000   1.0000   1.0000   1.0000   1.0000   1.0000   1.0000   1.0000
     1.0000   1.0000   1.0000   1.0000   1.0000   1.0000   1.0000   0.0000
     0.0000   0.0000   0.0000

          k = 0.5000 0.2165 0.1921 (  1117 PWs)   bands (ev):

   -47.9993 -47.9777 -22.1686 -22.1005 -21.8675 -21.8088 -21.7663 -21.7025
     5.6092  10.2549  12.2570  12.9296  14.1089  14.9707  15.9498  17.2318
    18.0829  18.2587  18.5004

     occupation numbers 
     1.0000   1.0000   1.0000   1.0000   1.0000   1.0000   1.0000   1.0000
     1.0000   1.0000   1.0000   1.0000   1.0000   1.0000   1.0000   0.0000
     0.0000   0.0000   0.0000

          k = 0.5000 0.2165 0.2562 (  1123 PWs)   bands (ev):

   -47.9943 -47.9827 -22.1700 -22.1358 -21.8432 -21.7910 -21.7651 -21.7084
     5.5954  10.2838  12.2087  12.9968  14.3842  15.0560  15.9074  16.8403
    17.8691  18.2278  18.4705

     occupation numbers 
     1.0000   1.0000   1.0000   1.0000   1.0000   1.0000   1.0000   1.0000
     1.0000   1.0000   1.0000   1.0000   1.0000   1.0000   1.0000   0.0000
     0.0000   0.0000   0.0000

          k = 0.3125 0.0361 0.0640 (  1102 PWs)   bands (ev):

   -48.0477 -47.9739 -22.0666 -21.9380 -21.9109 -21.8054 -21.7217 -21.6425
     4.7292  11.2976  11.8041  13.0096  14.2362  14.7933  15.7639  16.8100
    17.1439  17.6692  18.1810

     occupation numbers 
     1.0000   1.0000   1.0000   1.0000   1.0000   1.0000   1.0000   1.0000
     1.0000   1.0000   1.0000   1.0000   1.0000   1.0000   1.0000   0.0000
     0.0000   0.0000   0.0000

          k = 0.3125 0.0361 0.1281 (  1113 PWs)   bands (ev):

   -48.0423 -47.9794 -22.0671 -21.9390 -21.8864 -21.8129 -21.7299 -21.6504
     4.7627  11.2563  11.7821  12.9071  14.3585  14.9003  15.7578  16.7132
    17.2061  17.6636  18.1517

     occupation numbers 
     1.0000   1.0000   1.0000   1.0000   1.0000   1.0000   1.0000   1.0000
     1.0000   1.0000   1.0000   1.0000   1.0000   1.0000   1.0000  -0.0002
     0.0000   0.0000   0.0000

          k = 0.3125 0.0361 0.1921 (  1114 PWs)   bands (ev):

   -48.0338 -47.9880 -22.0603 -21.9584 -21.8460 -21.8119 -21.7424 -21.6676
     4.8014  11.1951  11.7885  12.8432  14.5495  14.9291  15.6526  16.6465
    17.2592  17.7150  18.0664

     occupation numbers 
     1.0000   1.0000   1.0000   1.0000   1.0000   1.0000   1.0000   1.0000
     1.0000   1.0000   1.0000   1.0000   1.0000   1.0000   1.0000  -0.0004
     0.0000   0.0000   0.0000

          k = 0.3125 0.0361 0.2562 (  1115 PWs)   bands (ev):

   -48.0231 -47.9986 -22.0450 -21.9859 -21.8148 -21.7939 -21.7528 -21.6949
     4.8302  11.1458  11.8198  12.8171  14.7650  14.9087  15.4459  16.6169
    17.3766  17.6702  18.0443

     occupation numbers 
     1.0000   1.0000   1.0000   1.0000   1.0000   1.0000   1.0000   1.0000
     1.0000   1.0000   1.0000   1.0000   1.0000   1.0000   1.0000  -0.0001
     0.0000   0.0000   0.0000

          k = 0.3750 0.0722 0.0640 (  1112 PWs)   bands (ev):

   -48.0320 -47.9712 -22.0419 -21.9984 -21.9392 -21.8413 -21.7367 -21.6659
     5.0854  10.9094  12.1192  12.8375  14.0756  14.6710  15.6513  17.2494
    17.4452  18.0388  18.2617

     occupation numbers 
     1.0000   1.0000   1.0000   1.0000   1.0000   1.0000   1.0000   1.0000
     1.0000   1.0000   1.0000   1.0000   1.0000   1.0000   1.0000   0.0000
     0.0000   0.0000   0.0000

          k = 0.3750 0.0722 0.1281 (  1114 PWs)   bands (ev):

   -48.0275 -47.9757 -22.0670 -22.0010 -21.9011 -21.8426 -21.7465 -21.6654
     5.1067  10.9123  12.0540  12.7475  14.2117  14.8195  15.6585  17.1532
    17.5682  17.8413  18.2653

     occupation numbers 
     1.0000   1.0000   1.0000   1.0000   1.0000   1.0000   1.0000   1.0000
     1.0000   1.0000   1.0000   1.0000   1.0000   1.0000   1.0000   0.0000
     0.0000   0.0000   0.0000

          k = 0.3750 0.0722 0.1921 (  1120 PWs)   bands (ev):

   -48.0205 -47.9827 -22.0785 -22.0220 -21.8640 -21.8259 -21.7600 -21.6731
     5.1252  10.9634  11.9596  12.7080  14.4113  14.9285  15.5862  17.0337
    17.5352  17.7727  18.2474

     occupation numbers 
     1.0000   1.0000   1.0000   1.0000   1.0000   1.0000   1.0000   1.0000
     1.0000   1.0000   1.0000   1.0000   1.0000   1.0000   1.0000   0.0000
     0.0000   0.0000   0.0000

          k = 0.3750 0.0722 0.2562 (  1115 PWs)   bands (ev):

   -48.0117 -47.9915 -22.0775 -22.0473 -21.8421 -21.8032 -21.7609 -21.6926
     5.1336  11.0575  11.8757  12.6943  14.6028  14.9973  15.4660  16.8577
    17.4331  17.8183  18.2398

     occupation numbers 
     1.0000   1.0000   1.0000   1.0000   1.0000   1.0000   1.0000   1.0000
     1.0000   1.0000   1.0000   1.0000   1.0000   1.0000   1.0000   0.0000
     0.0000   0.0000   0.0000

          k = 0.4375 0.1083 0.0640 (  1116 PWs)   bands (ev):

   -48.0173 -47.9702 -22.0780 -22.0078 -21.9402 -21.8708 -21.7498 -21.6932
     5.3991  10.6031  12.3325  12.6796  13.9464  14.6713  15.6482  17.6677
    17.7595  18.1663  18.5452

     occupation numbers 
     1.0000   1.0000   1.0000   1.0000   1.0000   1.0000   1.0000   1.0000
     1.0000   1.0000   1.0000   1.0000   1.0000   1.0000   1.0000   0.0000
     0.0000   0.0000   0.0000

          k = 0.4375 0.1083 0.1281 (  1116 PWs)   bands (ev):

   -48.0138 -47.9737 -22.0965 -22.0350 -21.9068 -21.8551 -21.7617 -21.6842
     5.4105  10.5903  12.2803  12.6237  14.1171  14.8021  15.6777  17.5773
    17.8036  17.9350  18.5425

     occupation numbers 
     1.0000   1.0000   1.0000   1.0000   1.0000   1.0000   1.0000   1.0000
     1.0000   1.0000   1.0000   1.0000   1.0000   1.0000   1.0000   0.0000
     0.0000   0.0000   0.0000

          k = 0.4375 0.1083 0.1921 (  1120 PWs)   bands (ev):

   -48.0084 -47.9792 -22.1099 -22.0661 -21.8853 -21.8203 -21.7747 -21.6826
     5.4140  10.6290  12.1876  12.6238  14.3557  14.9199  15.6480  17.3718
    17.5180  18.0750  18.5035

     occupation numbers 
     1.0000   1.0000   1.0000   1.0000   1.0000   1.0000   1.0000   1.0000
     1.0000   1.0000   1.0000   1.0000   1.0000   1.0000   1.0000   0.0000
     0.0000   0.0000   0.0000

          k = 0.4375 0.1083 0.2562 (  1122 PWs)   bands (ev):

   -48.0016 -47.9859 -22.1112 -22.0965 -21.8647 -21.8148 -21.7580 -21.6934
     5.4081  10.7119  12.1159  12.6276  14.5892  14.9912  15.6101  16.9250
    17.5217  18.1482  18.3858

     occupation numbers 
     1.0000   1.0000   1.0000   1.0000   1.0000   1.0000   1.0000   1.0000
     1.0000   1.0000   1.0000   1.0000   1.0000   1.0000   1.0000   0.0000
     0.0000   0.0000   0.0000

          k = 0.5000 0.1443 0.0640 (  1117 PWs)   bands (ev):

   -48.0060 -47.9711 -22.1161 -22.0164 -21.9253 -21.8805 -21.7604 -21.7186
     5.6113  10.4319  12.4505  12.5442  13.8707  14.7092  15.7042  17.8687
    18.0480  18.2886  18.8617

     occupation numbers 
     1.0000   1.0000   1.0000   1.0000   1.0000   1.0000   1.0000   1.0000
     1.0000   1.0000   1.0000   1.0000   1.0000   1.0000   1.0000   0.0000
     0.0000   0.0000   0.0000

          k = 0.5000 0.1443 0.1281 (  1114 PWs)   bands (ev):

   -48.0034 -47.9737 -22.1307 -22.0491 -21.9160 -21.8432 -21.7748 -21.7027
     5.6139  10.4146  12.3752  12.5549  14.0688  14.8211  15.7377  17.6249
    17.9977  18.2238  18.7950

     occupation numbers 
     1.0000   1.0000   1.0000   1.0000   1.0000   1.0000   1.0000   1.0000
     1.0000   1.0000   1.0000   1.0000   1.0000   1.0000   1.0000   0.0000
     0.0000   0.0000   0.0000

          k = 0.5000 0.1443 0.1921 (  1116 PWs)   bands (ev):

   -47.9994 -47.9777 -22.1426 -22.0864 -21.9005 -21.8094 -21.7833 -21.6935
     5.6093  10.4303  12.2848  12.5872  14.3440  14.9382  15.7530  17.2082
    17.8659  18.3393  18.6201

     occupation numbers 
     1.0000   1.0000   1.0000   1.0000   1.0000   1.0000   1.0000   1.0000
     1.0000   1.0000   1.0000   1.0000   1.0000   1.0000   1.0000   0.0000
     0.0000   0.0000   0.0000

          k = 0.5000 0.1443 0.2562 (  1119 PWs)   bands (ev):

   -47.9943 -47.9827 -22.1442 -22.1200 -21.8788 -21.8250 -21.7501 -21.6968
     5.5992  10.4751  12.2298  12.5994  14.6222  15.0116  15.7894  16.7579
    17.8120  18.3266  18.4623

     occupation numbers 
     1.0000   1.0000   1.0000   1.0000   1.0000   1.0000   1.0000   1.0000
     1.0000   1.0000   1.0000   1.0000   1.0000   1.0000   1.0000   0.0000
     0.0000   0.0000   0.0000

          k = 0.4375 0.0361 0.0640 (  1109 PWs)   bands (ev):

   -48.0188 -47.9702 -22.0426 -22.0258 -21.9318 -21.8649 -21.7740 -21.6901
     5.3510  10.8380  12.2826  12.5902  14.2009  14.5152  15.3916  17.4318
    17.7217  18.1100  18.5649

     occupation numbers 
     1.0000   1.0000   1.0000   1.0000   1.0000   1.0000   1.0000   1.0000
     1.0000   1.0000   1.0000   1.0000   1.0000   1.0000   1.0000   0.0000
     0.0000   0.0000   0.0000

          k = 0.4375 0.0361 0.1281 (  1117 PWs)   bands (ev):

   -48.0152 -47.9738 -22.0667 -22.0411 -21.8923 -21.8658 -21.7818 -21.6812
     5.3609  10.8810  12.2666  12.4112  14.3997  14.6719  15.4020  17.2286
    17.8447  17.8940  18.5982

     occupation numbers 
     1.0000   1.0000   1.0000   1.0000   1.0000   1.0000   1.0000   1.0000
     1.0000   1.0000   1.0000   1.0000   1.0000   1.0000   1.0000   0.0000
     0.0000   0.0000   0.0000

          k = 0.4375 0.0361 0.1921 (  1114 PWs)   bands (ev):

   -48.0096 -47.9794 -22.0869 -22.0555 -21.8886 -21.8375 -21.7810 -21.6790
     5.3694  10.9643  12.1278  12.3555  14.5947  14.8941  15.3885  16.9996
    17.5841  18.0362  18.6048

     occupation numbers 
     1.0000   1.0000   1.0000   1.0000   1.0000   1.0000   1.0000   1.0000
     1.0000   1.0000   1.0000   1.0000   1.0000   1.0000   1.0000   0.0000
     0.0000   0.0000   0.0000

          k = 0.4375 0.0361 0.2562 (  1117 PWs)   bands (ev):

   -48.0026 -47.9865 -22.0951 -22.0726 -21.8796 -21.8413 -21.7504 -21.6892
     5.3730  11.0684  11.9877  12.3399  14.7323  15.1449  15.3400  16.7619
    17.4181  18.1192  18.5194

     occupation numbers 
     1.0000   1.0000   1.0000   1.0000   1.0000   1.0000   1.0000   1.0000
     1.0000   1.0000   1.0000   1.0000   1.0000   1.0000   1.0000   0.0000
     0.0000   0.0000   0.0000

          k = 0.5000 0.0722 0.0640 (  1114 PWs)   bands (ev):

   -48.0060 -47.9710 -22.0853 -22.0164 -21.9210 -21.8859 -21.7916 -21.7184
     5.5913  10.6817  12.2568  12.5506  14.1424  14.6102  15.3613  17.7788
    17.9507  18.1546  18.8418

     occupation numbers 
     1.0000   1.0000   1.0000   1.0000   1.0000   1.0000   1.0000   1.0000
     1.0000   1.0000   1.0000   1.0000   1.0000   1.0000   1.0000   0.0000
     0.0000   0.0000   0.0000

          k = 0.5000 0.0722 0.1281 (  1112 PWs)   bands (ev):

   -48.0034 -47.9736 -22.0956 -22.0472 -21.9258 -21.8493 -21.7991 -21.7009
     5.5975  10.6841  12.2449  12.4265  14.3642  14.7281  15.3944  17.6610
    17.7193  18.1918  18.8482

     occupation numbers 
     1.0000   1.0000   1.0000   1.0000   1.0000   1.0000   1.0000   1.0000
     1.0000   1.0000   1.0000   1.0000   1.0000   1.0000   1.0000   0.0000
     0.0000   0.0000   0.0000

          k = 0.5000 0.0722 0.1921 (  1119 PWs)   bands (ev):

   -47.9994 -47.9776 -22.1077 -22.0761 -21.9242 -21.8416 -21.7781 -21.6892
     5.5996  10.7190  12.1792  12.3529  14.6300  14.8838  15.4186  17.2920
    17.5658  18.3378  18.8308

     occupation numbers 
     1.0000   1.0000   1.0000   1.0000   1.0000   1.0000   1.0000   1.0000
     1.0000   1.0000   1.0000   1.0000   1.0000   1.0000   1.0000   0.0000
     0.0000   0.0000   0.0000

          k = 0.5000 0.0722 0.2562 (  1118 PWs)   bands (ev):

   -47.9943 -47.9827 -22.1121 -22.1023 -21.9103 -21.8616 -21.7397 -21.6903
     5.5969  10.7788  12.1093  12.3092  14.8394  15.0504  15.4608  16.8615
    17.5340  18.4345  18.5444

     occupation numbers 
     1.0000   1.0000   1.0000   1.0000   1.0000   1.0000   1.0000   1.0000
     1.0000   1.0000   1.0000   1.0000   1.0000   1.0000   1.0000   0.0000
     0.0000   0.0000   0.0000

          k = 0.5625 0.1083 0.0640 (  1113 PWs)   bands (ev):

   -47.9976 -47.9729 -22.1092 -22.0054 -21.9421 -21.8655 -21.8038 -21.7408
     5.7188  10.6299  12.1703  12.5794  14.0877  14.6818  15.3926  17.8339
    18.1453  18.3088  19.0233

     occupation numbers 
     1.0000   1.0000   1.0000   1.0000   1.0000   1.0000   1.0000   1.0000
     1.0000   1.0000   1.0000   1.0000   1.0000   1.0000   1.0000   0.0000
     0.0000   0.0000   0.0000

          k = 0.5625 0.1083 0.1281 (  1111 PWs)   bands (ev):

   -47.9958 -47.9747 -22.1189 -22.0380 -21.9519 -21.8304 -21.8094 -21.7172
     5.7214  10.6192  12.1528  12.4969  14.2995  14.7881  15.4467  17.5476
    18.0283  18.3447  18.9500

     occupation numbers 
     1.0000   1.0000   1.0000   1.0000   1.0000   1.0000   1.0000   1.0000
     1.0000   1.0000   1.0000   1.0000   1.0000   1.0000   1.0000   0.0000
     0.0000   0.0000   0.0000

          k = 0.5625 0.1083 0.1921 (  1112 PWs)   bands (ev):

   -47.9929 -47.9776 -22.1290 -22.0747 -21.9457 -21.8477 -21.7686 -21.6991
     5.7221  10.6217  12.1274  12.4100  14.5841  14.9213  15.5219  17.1397
    17.8993  18.4207  18.7605

     occupation numbers 
     1.0000   1.0000   1.0000   1.0000   1.0000   1.0000   1.0000   1.0000
     1.0000   1.0000   1.0000   1.0000   1.0000   1.0000   1.0000   0.0000
     0.0000   0.0000   0.0000

          k = 0.5625 0.1083 0.2562 (  1111 PWs)   bands (ev):

   -47.9894 -47.9811 -22.1319 -22.1064 -21.9273 -21.8737 -21.7308 -21.6937
     5.7205  10.6379  12.1104  12.3359  14.8706  15.0180  15.6213  16.7320
    17.8321  18.3537  18.6688

     occupation numbers 
     1.0000   1.0000   1.0000   1.0000   1.0000   1.0000   1.0000   1.0000
     1.0000   1.0000   1.0000   1.0000   1.0000   1.0000   1.0000   0.0000
     0.0000   0.0000   0.0000

          k = 0.5625 0.0361 0.0640 (  1118 PWs)   bands (ev):

   -47.9954 -47.9736 -22.0853 -22.0098 -21.9376 -21.8659 -21.8322 -21.7482
     5.7338  10.8720  11.8929  12.6582  14.2609  14.6811  15.1111  17.9116
    18.0167  18.2339  18.9753

     occupation numbers 
     1.0000   1.0000   1.0000   1.0000   1.0000   1.0000   1.0000   1.0000
     1.0000   1.0000   1.0000   1.0000   1.0000   1.0000   1.0000   0.0000
     0.0000   0.0000   0.0000

          k = 0.5625 0.0361 0.1281 (  1114 PWs)   bands (ev):

   -47.9938 -47.9752 -22.0849 -22.0442 -21.9608 -21.8635 -21.8025 -21.7222
     5.7400  10.8731  11.8513  12.5468  14.5009  14.7801  15.1665  17.7017
    17.7894  18.3182  19.0183

     occupation numbers 
     1.0000   1.0000   1.0000   1.0000   1.0000   1.0000   1.0000   1.0000
     1.0000   1.0000   1.0000   1.0000   1.0000   1.0000   1.0000   0.0000
     0.0000   0.0000   0.0000

          k = 0.5625 0.0361 0.1921 (  1113 PWs)   bands (ev):

   -47.9913 -47.9777 -22.0913 -22.0729 -21.9702 -21.8831 -21.7587 -21.7007
     5.7462  10.8875  11.7897  12.4386  14.7970  14.9221  15.2382  17.3037
    17.6635  18.3782  18.9347

     occupation numbers 
     1.0000   1.0000   1.0000   1.0000   1.0000   1.0000   1.0000   1.0000
     1.0000   1.0000   1.0000   1.0000   1.0000   1.0000   1.0000   0.0000
     0.0000   0.0000   0.0000

          k = 0.5625 0.0361 0.2562 (  1112 PWs)   bands (ev):

   -47.9881 -47.9809 -22.0991 -22.0943 -21.9595 -21.9089 -21.7225 -21.6917
     5.7501  10.9129  11.7305  12.3627  15.0092  15.1137  15.3090  16.9343
    17.5877  18.3341  18.8366

     occupation numbers 
     1.0000   1.0000   1.0000   1.0000   1.0000   1.0000   1.0000   1.0000
     1.0000   1.0000   1.0000   1.0000   1.0000   1.0000   1.0000   0.0000
     0.0000   0.0000   0.0000

     the Fermi energy is    16.1562 ev
     (compare with:    16.1193 eV, computed in scf)

     Writing output data file ./outdir/v2c.save/

     init_run     :      0.83s CPU      1.17s WALL (       1 calls)
     electrons    :    424.73s CPU    436.76s WALL (       1 calls)

     Called by init_run:
     wfcinit      :      0.00s CPU      0.00s WALL (       1 calls)
     wfcinit:atom :      0.25s CPU      0.22s WALL (     264 calls)
     wfcinit:wfcr :     13.89s CPU     14.28s WALL (     264 calls)
     potinit      :      0.14s CPU      0.17s WALL (       1 calls)
     hinit0       :      0.50s CPU      0.57s WALL (       1 calls)

     Called by electrons:
     c_bands      :    424.00s CPU    434.06s WALL (       1 calls)
     v_of_rho     :      0.05s CPU      0.08s WALL (       1 calls)
     v_h          :      0.00s CPU      0.00s WALL (       1 calls)
     v_xc         :      0.05s CPU      0.07s WALL (       1 calls)
     newd         :      0.11s CPU      0.28s WALL (       1 calls)
     PAW_pot      :      0.08s CPU      0.07s WALL (       1 calls)

     Called by c_bands:
     init_us_2    :      0.31s CPU      0.27s WALL (     264 calls)
     cegterg      :    407.45s CPU    416.81s WALL (     830 calls)

     Called by sum_band:

     Called by *egterg:
     cdiaghg      :     17.48s CPU     17.86s WALL (   14784 calls)
     cegterg:over :     40.58s CPU     41.60s WALL (   14520 calls)
     cegterg:upda :     25.98s CPU     27.68s WALL (   14520 calls)
     cegterg:last :     77.47s CPU     78.43s WALL (    7511 calls)
     h_psi        :    216.03s CPU    220.43s WALL (   15614 calls)
     s_psi        :     33.80s CPU     34.99s WALL (   15614 calls)
     g_psi        :      2.06s CPU      2.08s WALL (   14520 calls)

     Called by h_psi:
     h_psi:calbec :     31.39s CPU     32.36s WALL (   15614 calls)
     vloc_psi     :    148.09s CPU    151.19s WALL (   15614 calls)
     add_vuspsi   :     36.02s CPU     36.04s WALL (   15614 calls)

     General routines
     calbec       :     31.34s CPU     32.27s WALL (   15614 calls)
     fft          :      0.02s CPU      0.05s WALL (      13 calls)
     ffts         :      0.02s CPU      0.01s WALL (       1 calls)
     fftw         :    128.25s CPU    130.32s WALL (  281676 calls)
     interpolate  :      0.02s CPU      0.02s WALL (       1 calls)
     davcio       :      0.00s CPU      0.17s WALL (     528 calls)

     Parallel routines

     PAW routines
     PAW_pot      :      0.08s CPU      0.07s WALL (       1 calls)

     PWSCF        :   7m 6.64s CPU   7m19.95s WALL


   This run was terminated on:  22:43: 5   1Jun2024            

=------------------------------------------------------------------------------=
   JOB DONE.
=------------------------------------------------------------------------------=
