
     Program PROJWFC v.6.7MaX starts on  1Jun2024 at 22:52: 9 

     This program is part of the open-source Quantum ESPRESSO suite
     for quantum simulation of materials; please cite
         "P. Giannozzi et al., J. Phys.:Condens. Matter 21 395502 (2009);
         "P. Giannozzi et al., J. Phys.:Condens. Matter 29 465901 (2017);
          URL http://www.quantum-espresso.org", 
     in publications or presentations arising from this work. More details at
     http://www.quantum-espresso.org/quote

     Parallel version (MPI), running on     1 processors

     MPI processes distributed on     1 nodes

     Reading xml data from directory:

     ./outdir/v2c.save/
     file C.pbe-n-kjpaw_psl.1.0.0.UPF: wavefunction(s)  2S 2P renormalized

     IMPORTANT: XC functional enforced from input :
     Exchange-correlation= PBE
                           (   1   4   3   4   0   0   0)
     Any further DFT definition will be discarded
     Please, verify this is what you really want


     G-vector sticks info
     --------------------
     sticks:   dense  smooth     PW     G-vecs:    dense   smooth      PW
     Sum         745     367    121                25371     8971    1557


     Check: negative core charge=   -0.000007

     negative rho (up, down):  1.844E-03 0.000E+00

     Linear tetrahedron method (read from file) 
     [opt_tetra]  Linear tetrahedron method is used.

     Calling projwave .... 

  Problem Sizes 
  natomwfc =           24
  nbnd     =           19
  nkstot   =          264
  npwx     =         1134
  nkb      =           44


     Atomic states used for projection
     (read from pseudopotential files):

     state #   1: atom   1 (V  ), wfc  1 (l=0 m= 1)
     state #   2: atom   1 (V  ), wfc  2 (l=1 m= 1)
     state #   3: atom   1 (V  ), wfc  2 (l=1 m= 2)
     state #   4: atom   1 (V  ), wfc  2 (l=1 m= 3)
     state #   5: atom   1 (V  ), wfc  3 (l=0 m= 1)
     state #   6: atom   1 (V  ), wfc  4 (l=2 m= 1)
     state #   7: atom   1 (V  ), wfc  4 (l=2 m= 2)
     state #   8: atom   1 (V  ), wfc  4 (l=2 m= 3)
     state #   9: atom   1 (V  ), wfc  4 (l=2 m= 4)
     state #  10: atom   1 (V  ), wfc  4 (l=2 m= 5)
     state #  11: atom   2 (V  ), wfc  1 (l=0 m= 1)
     state #  12: atom   2 (V  ), wfc  2 (l=1 m= 1)
     state #  13: atom   2 (V  ), wfc  2 (l=1 m= 2)
     state #  14: atom   2 (V  ), wfc  2 (l=1 m= 3)
     state #  15: atom   2 (V  ), wfc  3 (l=0 m= 1)
     state #  16: atom   2 (V  ), wfc  4 (l=2 m= 1)
     state #  17: atom   2 (V  ), wfc  4 (l=2 m= 2)
     state #  18: atom   2 (V  ), wfc  4 (l=2 m= 3)
     state #  19: atom   2 (V  ), wfc  4 (l=2 m= 4)
     state #  20: atom   2 (V  ), wfc  4 (l=2 m= 5)
     state #  21: atom   3 (C  ), wfc  1 (l=0 m= 1)
     state #  22: atom   3 (C  ), wfc  2 (l=1 m= 1)
     state #  23: atom   3 (C  ), wfc  2 (l=1 m= 2)
     state #  24: atom   3 (C  ), wfc  2 (l=1 m= 3)

 k =   0.0000000000  0.0000000000  0.0000000000
==== e(   1) =   -48.09593 eV ==== 
     psi = 0.458*[#   1]+0.458*[#  11]+0.040*[#   5]+0.040*[#  15]+0.004*[#  21]
          
    |psi|^2 = 1.000
==== e(   2) =   -47.98520 eV ==== 
     psi = 0.469*[#   1]+0.469*[#  11]+0.033*[#  22]+0.010*[#   5]+0.010*[#  15]
          +0.005*[#   6]+0.005*[#  16]
    |psi|^2 = 1.000
==== e(   3) =   -22.18969 eV ==== 
     psi = 0.491*[#   2]+0.491*[#  12]+0.018*[#  21]
    |psi|^2 = 1.000
==== e(   4) =   -21.75423 eV ==== 
     psi = 0.250*[#   3]+0.250*[#   4]+0.250*[#  13]+0.250*[#  14]
    |psi|^2 = 1.000
==== e(   5) =   -21.75423 eV ==== 
     psi = 0.250*[#   3]+0.250*[#   4]+0.250*[#  13]+0.250*[#  14]
    |psi|^2 = 1.000
==== e(   6) =   -21.67324 eV ==== 
     psi = 0.249*[#   3]+0.249*[#   4]+0.249*[#  13]+0.249*[#  14]+0.002*[#  23]
          +0.002*[#  24]
    |psi|^2 = 1.000
==== e(   7) =   -21.67324 eV ==== 
     psi = 0.249*[#   3]+0.249*[#   4]+0.249*[#  13]+0.249*[#  14]+0.002*[#  23]
          +0.002*[#  24]
    |psi|^2 = 1.000
==== e(   8) =   -21.58404 eV ==== 
     psi = 0.499*[#   2]+0.499*[#  12]+0.003*[#  22]
    |psi|^2 = 1.000
==== e(   9) =     3.64703 eV ==== 
     psi = 0.474*[#  21]+0.227*[#   5]+0.227*[#  15]+0.031*[#   1]+0.031*[#  11]
          +0.004*[#   2]+0.004*[#  12]
    |psi|^2 = 0.998
==== e(  10) =    10.55334 eV ==== 
     psi = 0.437*[#  22]+0.221*[#   6]+0.221*[#  16]+0.050*[#   5]+0.050*[#  15]
          +0.010*[#   1]+0.010*[#  11]
    |psi|^2 = 1.000
==== e(  11) =    13.38812 eV ==== 
     psi = 0.214*[#  23]+0.214*[#  24]+0.120*[#   9]+0.120*[#  10]+0.120*[#  19]
          +0.120*[#  20]+0.022*[#   7]+0.022*[#   8]+0.022*[#  17]+0.022*[#  18]
          
    |psi|^2 = 0.999
==== e(  12) =    13.38812 eV ==== 
     psi = 0.214*[#  23]+0.214*[#  24]+0.120*[#   9]+0.120*[#  10]+0.120*[#  19]
          +0.120*[#  20]+0.022*[#   7]+0.022*[#   8]+0.022*[#  17]+0.022*[#  18]
          
    |psi|^2 = 0.999
==== e(  13) =    14.12953 eV ==== 
     psi = 0.412*[#  21]+0.203*[#   5]+0.203*[#  15]+0.010*[#   1]+0.010*[#  11]
          +0.005*[#   2]+0.005*[#   6]+0.005*[#  12]+0.005*[#  16]
    |psi|^2 = 0.858
==== e(  14) =    16.22257 eV ==== 
     psi = 0.490*[#   6]+0.490*[#  16]+0.006*[#  21]+0.003*[#   5]+0.003*[#  15]
          
    |psi|^2 = 0.993
==== e(  15) =    16.34439 eV ==== 
     psi = 0.225*[#   9]+0.225*[#  10]+0.225*[#  19]+0.225*[#  20]+0.024*[#   7]
          +0.024*[#   8]+0.024*[#  17]+0.024*[#  18]
    |psi|^2 = 0.996
==== e(  16) =    16.34439 eV ==== 
     psi = 0.225*[#   9]+0.225*[#  10]+0.225*[#  19]+0.225*[#  20]+0.024*[#   7]
          +0.024*[#   8]+0.024*[#  17]+0.024*[#  18]
    |psi|^2 = 0.996
==== e(  17) =    16.64136 eV ==== 
     psi = 0.224*[#   7]+0.224*[#   8]+0.224*[#  17]+0.224*[#  18]+0.024*[#   9]
          +0.024*[#  10]+0.024*[#  19]+0.024*[#  20]
    |psi|^2 = 0.993
==== e(  18) =    16.64136 eV ==== 
     psi = 0.224*[#   7]+0.224*[#   8]+0.224*[#  17]+0.224*[#  18]+0.024*[#   9]
          +0.024*[#  10]+0.024*[#  19]+0.024*[#  20]
    |psi|^2 = 0.993
==== e(  19) =    17.57184 eV ==== 
     psi = 0.163*[#   7]+0.163*[#   8]+0.163*[#  17]+0.163*[#  18]+0.075*[#   9]
          +0.075*[#  10]+0.075*[#  19]+0.075*[#  20]+0.023*[#  23]+0.023*[#  24]
          
    |psi|^2 = 0.998

 k =   0.0000000000  0.0000000000 -0.0640405144
==== e(   1) =   -48.09325 eV ==== 
     psi = 0.459*[#   1]+0.459*[#  11]+0.039*[#   5]+0.039*[#  15]+0.005*[#  21]
          
    |psi|^2 = 1.000
==== e(   2) =   -47.98792 eV ==== 
     psi = 0.471*[#   1]+0.471*[#  11]+0.033*[#  22]+0.008*[#   5]+0.008*[#  15]
          +0.004*[#   6]+0.004*[#  16]
    |psi|^2 = 1.000
==== e(   3) =   -22.17539 eV ==== 
     psi = 0.490*[#   2]+0.490*[#  12]+0.017*[#  21]+0.001*[#   5]+0.001*[#  15]
          
    |psi|^2 = 1.000
==== e(   4) =   -21.75232 eV ==== 
     psi = 0.250*[#   3]+0.250*[#   4]+0.250*[#  13]+0.250*[#  14]
    |psi|^2 = 1.000
==== e(   5) =   -21.75232 eV ==== 
     psi = 0.250*[#   3]+0.250*[#   4]+0.250*[#  13]+0.250*[#  14]
    |psi|^2 = 1.000
==== e(   6) =   -21.67516 eV ==== 
     psi = 0.249*[#   3]+0.249*[#   4]+0.249*[#  13]+0.249*[#  14]+0.002*[#  23]
          +0.002*[#  24]
    |psi|^2 = 1.000
==== e(   7) =   -21.67516 eV ==== 
     psi = 0.249*[#   3]+0.249*[#   4]+0.249*[#  13]+0.249*[#  14]+0.002*[#  23]
          +0.002*[#  24]
    |psi|^2 = 1.000
==== e(   8) =   -21.59940 eV ==== 
     psi = 0.498*[#   2]+0.498*[#  12]+0.002*[#  22]
    |psi|^2 = 1.000
==== e(   9) =     3.67811 eV ==== 
     psi = 0.473*[#  21]+0.228*[#   5]+0.228*[#  15]+0.029*[#   1]+0.029*[#  11]
          +0.005*[#   2]+0.005*[#  12]
    |psi|^2 = 0.998
==== e(  10) =    10.46171 eV ==== 
     psi = 0.431*[#  22]+0.198*[#   6]+0.198*[#  16]+0.070*[#   5]+0.070*[#  15]
          +0.011*[#   1]+0.011*[#  11]+0.008*[#  21]
    |psi|^2 = 0.999
==== e(  11) =    13.36239 eV ==== 
     psi = 0.212*[#  23]+0.212*[#  24]+0.119*[#   9]+0.119*[#  10]+0.119*[#  19]
          +0.119*[#  20]+0.025*[#   7]+0.025*[#   8]+0.025*[#  17]+0.025*[#  18]
          
    |psi|^2 = 0.999
==== e(  12) =    13.36239 eV ==== 
     psi = 0.212*[#  23]+0.212*[#  24]+0.119*[#   9]+0.119*[#  10]+0.119*[#  19]
          +0.119*[#  20]+0.025*[#   7]+0.025*[#   8]+0.025*[#  17]+0.025*[#  18]
          
    |psi|^2 = 0.999
==== e(  13) =    14.18731 eV ==== 
     psi = 0.348*[#  21]+0.207*[#   5]+0.207*[#  15]+0.045*[#   6]+0.045*[#  16]
          +0.010*[#   1]+0.010*[#  11]+0.005*[#   2]+0.005*[#  12]+0.004*[#  22]
          
    |psi|^2 = 0.885
==== e(  14) =    16.16112 eV ==== 
     psi = 0.485*[#   6]+0.485*[#  16]+0.008*[#  21]+0.005*[#   5]+0.005*[#  15]
          +0.005*[#  22]
    |psi|^2 = 0.994
==== e(  15) =    16.31065 eV ==== 
     psi = 0.242*[#   9]+0.242*[#  10]+0.242*[#  19]+0.242*[#  20]+0.007*[#   7]
          +0.007*[#   8]+0.007*[#  17]+0.007*[#  18]
    |psi|^2 = 0.995
==== e(  16) =    16.31065 eV ==== 
     psi = 0.242*[#   9]+0.242*[#  10]+0.242*[#  19]+0.242*[#  20]+0.007*[#   7]
          +0.007*[#   8]+0.007*[#  17]+0.007*[#  18]
    |psi|^2 = 0.995
==== e(  17) =    16.67796 eV ==== 
     psi = 0.246*[#   7]+0.246*[#   8]+0.246*[#  17]+0.246*[#  18]+0.002*[#  23]
          +0.002*[#  24]+0.002*[#   9]+0.002*[#  10]+0.002*[#  19]+0.002*[#  20]
          
    |psi|^2 = 0.994
==== e(  18) =    16.67796 eV ==== 
     psi = 0.246*[#   7]+0.246*[#   8]+0.246*[#  17]+0.246*[#  18]+0.002*[#  23]
          +0.002*[#  24]+0.002*[#   9]+0.002*[#  10]+0.002*[#  19]+0.002*[#  20]
          
    |psi|^2 = 0.994
==== e(  19) =    17.65188 eV ==== 
     psi = 0.158*[#   7]+0.158*[#   8]+0.158*[#  17]+0.158*[#  18]+0.082*[#   9]
          +0.082*[#  10]+0.082*[#  19]+0.082*[#  20]+0.020*[#  23]+0.020*[#  24]
          
    |psi|^2 = 0.998

 k =   0.0000000000  0.0000000000 -0.1280810288
==== e(   1) =   -48.08550 eV ==== 
     psi = 0.462*[#   1]+0.462*[#  11]+0.034*[#   5]+0.034*[#  15]+0.005*[#  21]
          +0.004*[#  22]
    |psi|^2 = 1.000
==== e(   2) =   -47.99581 eV ==== 
     psi = 0.476*[#   1]+0.476*[#  11]+0.031*[#  22]+0.004*[#   6]+0.004*[#  16]
          +0.003*[#  21]+0.003*[#   5]+0.003*[#  15]
    |psi|^2 = 1.000
==== e(   3) =   -22.13375 eV ==== 
     psi = 0.489*[#   2]+0.489*[#  12]+0.014*[#  21]+0.004*[#   5]+0.004*[#  15]
          
    |psi|^2 = 1.000
==== e(   4) =   -21.74680 eV ==== 
     psi = 0.250*[#   3]+0.250*[#   4]+0.250*[#  13]+0.250*[#  14]
    |psi|^2 = 1.000
==== e(   5) =   -21.74680 eV ==== 
     psi = 0.250*[#   3]+0.250*[#   4]+0.250*[#  13]+0.250*[#  14]
    |psi|^2 = 1.000
==== e(   6) =   -21.68069 eV ==== 
     psi = 0.249*[#   3]+0.249*[#   4]+0.249*[#  13]+0.249*[#  14]+0.002*[#  23]
          +0.002*[#  24]
    |psi|^2 = 1.000
==== e(   7) =   -21.68069 eV ==== 
     psi = 0.249*[#   3]+0.249*[#   4]+0.249*[#  13]+0.249*[#  14]+0.002*[#  23]
          +0.002*[#  24]
    |psi|^2 = 1.000
==== e(   8) =   -21.64382 eV ==== 
     psi = 0.496*[#   2]+0.496*[#  12]+0.003*[#   5]+0.003*[#  15]+0.002*[#  22]
          
    |psi|^2 = 1.000
==== e(   9) =     3.76191 eV ==== 
     psi = 0.475*[#  21]+0.228*[#   5]+0.228*[#  15]+0.026*[#   1]+0.026*[#  11]
          +0.007*[#   2]+0.007*[#  12]
    |psi|^2 = 0.999
==== e(  10) =    10.22773 eV ==== 
     psi = 0.416*[#  22]+0.150*[#   6]+0.150*[#  16]+0.117*[#   5]+0.117*[#  15]
          +0.017*[#  21]+0.014*[#   1]+0.014*[#  11]+0.001*[#   2]+0.001*[#  12]
          
    |psi|^2 = 0.998
==== e(  11) =    13.29902 eV ==== 
     psi = 0.207*[#  23]+0.207*[#  24]+0.115*[#   9]+0.115*[#  10]+0.115*[#  19]
          +0.115*[#  20]+0.031*[#   7]+0.031*[#   8]+0.031*[#  17]+0.031*[#  18]
          
    |psi|^2 = 0.999
==== e(  12) =    13.29902 eV ==== 
     psi = 0.207*[#  23]+0.207*[#  24]+0.115*[#   9]+0.115*[#  10]+0.115*[#  19]
          +0.115*[#  20]+0.031*[#   7]+0.031*[#   8]+0.031*[#  17]+0.031*[#  18]
          
    |psi|^2 = 0.999
==== e(  13) =    14.34663 eV ==== 
     psi = 0.220*[#  21]+0.195*[#   5]+0.195*[#  15]+0.141*[#   6]+0.141*[#  16]
          +0.012*[#  22]+0.008*[#   1]+0.008*[#  11]+0.005*[#   2]+0.005*[#  12]
          
    |psi|^2 = 0.931
==== e(  14) =    15.99974 eV ==== 
     psi = 0.467*[#   6]+0.467*[#  16]+0.017*[#   5]+0.017*[#  15]+0.015*[#  22]
          +0.009*[#  21]
    |psi|^2 = 0.994
==== e(  15) =    16.17735 eV ==== 
     psi = 0.227*[#   9]+0.227*[#  10]+0.227*[#  19]+0.227*[#  20]+0.021*[#   7]
          +0.021*[#   8]+0.021*[#  17]+0.021*[#  18]
    |psi|^2 = 0.995
==== e(  16) =    16.17735 eV ==== 
     psi = 0.227*[#   9]+0.227*[#  10]+0.227*[#  19]+0.227*[#  20]+0.021*[#   7]
          +0.021*[#   8]+0.021*[#  17]+0.021*[#  18]
    |psi|^2 = 0.995
==== e(  17) =    16.86681 eV ==== 
     psi = 0.236*[#   7]+0.236*[#   8]+0.236*[#  17]+0.236*[#  18]+0.011*[#   9]
          +0.011*[#  10]+0.011*[#  19]+0.011*[#  20]+0.004*[#  23]+0.004*[#  24]
          
    |psi|^2 = 0.995
==== e(  18) =    16.86681 eV ==== 
     psi = 0.236*[#   7]+0.236*[#   8]+0.236*[#  17]+0.236*[#  18]+0.011*[#   9]
          +0.011*[#  10]+0.011*[#  19]+0.011*[#  20]+0.004*[#  23]+0.004*[#  24]
          
    |psi|^2 = 0.995
==== e(  19) =    17.81452 eV ==== 
     psi = 0.153*[#   7]+0.153*[#   8]+0.153*[#  17]+0.153*[#  18]+0.089*[#   9]
          +0.089*[#  10]+0.089*[#  19]+0.089*[#  20]+0.015*[#  23]+0.015*[#  24]
          
    |psi|^2 = 0.999

 k =   0.0000000000  0.0000000000 -0.1921215432
==== e(   1) =   -48.07342 eV ==== 
     psi = 0.467*[#   1]+0.467*[#  11]+0.026*[#   5]+0.026*[#  15]+0.008*[#  22]
          +0.005*[#  21]
    |psi|^2 = 1.000
==== e(   2) =   -48.00804 eV ==== 
     psi = 0.481*[#   1]+0.481*[#  11]+0.027*[#  22]+0.005*[#  21]+0.003*[#   6]
          +0.003*[#  16]
    |psi|^2 = 1.000
==== e(   3) =   -22.06850 eV ==== 
     psi = 0.487*[#   2]+0.487*[#  12]+0.011*[#  21]+0.007*[#   5]+0.007*[#  15]
          
    |psi|^2 = 1.000
==== e(   4) =   -21.73832 eV ==== 
     psi = 0.250*[#   3]+0.250*[#   4]+0.250*[#  13]+0.250*[#  14]
    |psi|^2 = 1.000
==== e(   5) =   -21.73832 eV ==== 
     psi = 0.250*[#   3]+0.250*[#   4]+0.250*[#  13]+0.250*[#  14]
    |psi|^2 = 1.000
==== e(   6) =   -21.71250 eV ==== 
     psi = 0.493*[#   2]+0.493*[#  12]+0.005*[#   5]+0.005*[#  15]+0.002*[#  22]
          +0.001*[#  21]
    |psi|^2 = 1.000
==== e(   7) =   -21.68921 eV ==== 
     psi = 0.249*[#   3]+0.249*[#   4]+0.249*[#  13]+0.249*[#  14]+0.001*[#  23]
          +0.001*[#  24]
    |psi|^2 = 1.000
==== e(   8) =   -21.68921 eV ==== 
     psi = 0.249*[#   3]+0.249*[#   4]+0.249*[#  13]+0.249*[#  14]+0.001*[#  23]
          +0.001*[#  24]
    |psi|^2 = 1.000
==== e(   9) =     3.87085 eV ==== 
     psi = 0.481*[#  21]+0.227*[#   5]+0.227*[#  15]+0.021*[#   1]+0.021*[#  11]
          +0.010*[#   2]+0.010*[#  12]+0.001*[#   6]+0.001*[#  16]
    |psi|^2 = 0.999
==== e(  10) =     9.94711 eV ==== 
     psi = 0.401*[#  22]+0.168*[#   5]+0.168*[#  15]+0.104*[#   6]+0.104*[#  16]
          +0.019*[#   1]+0.019*[#  11]+0.015*[#  21]+0.002*[#   2]+0.002*[#  12]
          
    |psi|^2 = 0.999
==== e(  11) =    13.22740 eV ==== 
     psi = 0.203*[#  23]+0.203*[#  24]+0.111*[#   9]+0.111*[#  10]+0.111*[#  19]
          +0.111*[#  20]+0.037*[#   7]+0.037*[#   8]+0.037*[#  17]+0.037*[#  18]
          
    |psi|^2 = 0.999
==== e(  12) =    13.22740 eV ==== 
     psi = 0.203*[#  23]+0.203*[#  24]+0.111*[#   9]+0.111*[#  10]+0.111*[#  19]
          +0.111*[#  20]+0.037*[#   7]+0.037*[#   8]+0.037*[#  17]+0.037*[#  18]
          
    |psi|^2 = 0.999
==== e(  13) =    14.57684 eV ==== 
     psi = 0.252*[#   6]+0.252*[#  16]+0.156*[#   5]+0.156*[#  15]+0.110*[#  21]
          +0.017*[#  22]+0.005*[#   1]+0.005*[#  11]+0.005*[#   2]+0.005*[#  12]
          
    |psi|^2 = 0.961
==== e(  14) =    15.77660 eV ==== 
     psi = 0.433*[#   6]+0.433*[#  16]+0.045*[#   5]+0.045*[#  15]+0.025*[#  22]
          +0.006*[#  21]+0.002*[#   2]+0.002*[#  12]
    |psi|^2 = 0.992
==== e(  15) =    16.02117 eV ==== 
     psi = 0.213*[#   9]+0.213*[#  10]+0.213*[#  19]+0.213*[#  20]+0.036*[#   7]
          +0.036*[#   8]+0.036*[#  17]+0.036*[#  18]
    |psi|^2 = 0.995
==== e(  16) =    16.02117 eV ==== 
     psi = 0.213*[#   9]+0.213*[#  10]+0.213*[#  19]+0.213*[#  20]+0.036*[#   7]
          +0.036*[#   8]+0.036*[#  17]+0.036*[#  18]
    |psi|^2 = 0.995
==== e(  17) =    17.16578 eV ==== 
     psi = 0.220*[#   7]+0.220*[#   8]+0.220*[#  17]+0.220*[#  18]+0.027*[#   9]
          +0.027*[#  10]+0.027*[#  19]+0.027*[#  20]+0.004*[#  23]+0.004*[#  24]
          
    |psi|^2 = 0.995
==== e(  18) =    17.16578 eV ==== 
     psi = 0.220*[#   7]+0.220*[#   8]+0.220*[#  17]+0.220*[#  18]+0.027*[#   9]
          +0.027*[#  10]+0.027*[#  19]+0.027*[#  20]+0.004*[#  23]+0.004*[#  24]
          
    |psi|^2 = 0.995
==== e(  19) =    17.94638 eV ==== 
     psi = 0.156*[#   7]+0.156*[#   8]+0.156*[#  17]+0.156*[#  18]+0.089*[#   9]
          +0.089*[#  10]+0.089*[#  19]+0.089*[#  20]+0.009*[#  23]+0.009*[#  24]
          
    |psi|^2 = 0.999

 k =   0.0000000000  0.0000000000 -0.2561620576
==== e(   1) =   -48.05829 eV ==== 
     psi = 0.472*[#   1]+0.472*[#  11]+0.017*[#   5]+0.017*[#  15]+0.016*[#  22]
          +0.005*[#  21]
    |psi|^2 = 1.000
==== e(   2) =   -48.02329 eV ==== 
     psi = 0.482*[#   1]+0.482*[#  11]+0.020*[#  22]+0.007*[#  21]+0.002*[#   5]
          +0.002*[#  15]+0.002*[#   6]+0.002*[#  16]
    |psi|^2 = 1.000
==== e(   3) =   -21.98562 eV ==== 
     psi = 0.486*[#   2]+0.486*[#  12]+0.009*[#   5]+0.009*[#  15]+0.008*[#  21]
          
    |psi|^2 = 1.000
==== e(   4) =   -21.79813 eV ==== 
     psi = 0.490*[#   2]+0.490*[#  12]+0.008*[#   5]+0.008*[#  15]+0.002*[#  21]
          +0.001*[#  22]
    |psi|^2 = 1.000
==== e(   5) =   -21.72817 eV ==== 
     psi = 0.249*[#   3]+0.249*[#   4]+0.249*[#  13]+0.249*[#  14]+0.001*[#  23]
          +0.001*[#  24]
    |psi|^2 = 1.000
==== e(   6) =   -21.72817 eV ==== 
     psi = 0.249*[#   3]+0.249*[#   4]+0.249*[#  13]+0.249*[#  14]+0.001*[#  23]
          +0.001*[#  24]
    |psi|^2 = 1.000
==== e(   7) =   -21.69938 eV ==== 
     psi = 0.250*[#   3]+0.250*[#   4]+0.250*[#  13]+0.250*[#  14]
    |psi|^2 = 1.000
==== e(   8) =   -21.69938 eV ==== 
     psi = 0.250*[#   3]+0.250*[#   4]+0.250*[#  13]+0.250*[#  14]
    |psi|^2 = 1.000
==== e(   9) =     3.96404 eV ==== 
     psi = 0.488*[#  21]+0.225*[#   5]+0.225*[#  15]+0.017*[#   1]+0.017*[#  11]
          +0.012*[#   2]+0.012*[#  12]+0.002*[#   6]+0.002*[#  16]
    |psi|^2 = 0.999
==== e(  10) =     9.72444 eV ==== 
     psi = 0.389*[#  22]+0.205*[#   5]+0.205*[#  15]+0.073*[#   6]+0.073*[#  16]
          +0.023*[#   1]+0.023*[#  11]+0.005*[#  21]+0.002*[#   2]+0.002*[#  12]
          
    |psi|^2 = 0.999
==== e(  11) =    13.17397 eV ==== 
     psi = 0.201*[#  23]+0.201*[#  24]+0.108*[#   9]+0.108*[#  10]+0.108*[#  19]
          +0.108*[#  20]+0.041*[#   7]+0.041*[#   8]+0.041*[#  17]+0.041*[#  18]
          
    |psi|^2 = 0.999
==== e(  12) =    13.17397 eV ==== 
     psi = 0.201*[#  23]+0.201*[#  24]+0.108*[#   9]+0.108*[#  10]+0.108*[#  19]
          +0.108*[#  20]+0.041*[#   7]+0.041*[#   8]+0.041*[#  17]+0.041*[#  18]
          
    |psi|^2 = 0.999
==== e(  13) =    14.83998 eV ==== 
     psi = 0.364*[#   6]+0.364*[#  16]+0.090*[#   5]+0.090*[#  15]+0.044*[#  21]
          +0.014*[#  22]+0.003*[#   2]+0.003*[#  12]+0.002*[#   1]+0.002*[#  11]
          
    |psi|^2 = 0.978
==== e(  14) =    15.52401 eV ==== 
     psi = 0.373*[#   6]+0.373*[#  16]+0.100*[#   5]+0.100*[#  15]+0.037*[#  22]
          +0.003*[#   2]+0.003*[#  12]+0.001*[#  21]
    |psi|^2 = 0.990
==== e(  15) =    15.90958 eV ==== 
     psi = 0.205*[#   9]+0.205*[#  10]+0.205*[#  19]+0.205*[#  20]+0.043*[#   7]
          +0.043*[#   8]+0.043*[#  17]+0.043*[#  18]
    |psi|^2 = 0.995
==== e(  16) =    15.90958 eV ==== 
     psi = 0.205*[#   9]+0.205*[#  10]+0.205*[#  19]+0.205*[#  20]+0.043*[#   7]
          +0.043*[#   8]+0.043*[#  17]+0.043*[#  18]
    |psi|^2 = 0.995
==== e(  17) =    17.47238 eV ==== 
     psi = 0.208*[#   7]+0.208*[#   8]+0.208*[#  17]+0.208*[#  18]+0.040*[#   9]
          +0.040*[#  10]+0.040*[#  19]+0.040*[#  20]+0.001*[#  23]+0.001*[#  24]
          
    |psi|^2 = 0.994
==== e(  18) =    17.47238 eV ==== 
     psi = 0.208*[#   7]+0.208*[#   8]+0.208*[#  17]+0.208*[#  18]+0.040*[#   9]
          +0.040*[#  10]+0.040*[#  19]+0.040*[#  20]+0.001*[#  23]+0.001*[#  24]
          
    |psi|^2 = 0.994
==== e(  19) =    17.98053 eV ==== 
     psi = 0.165*[#   7]+0.165*[#   8]+0.165*[#  17]+0.165*[#  18]+0.083*[#   9]
          +0.083*[#  10]+0.083*[#  19]+0.083*[#  20]+0.003*[#  23]+0.003*[#  24]
          
    |psi|^2 = 0.999

 k =   0.0000000000  0.0000000000  0.3202025720
==== e(   1) =   -48.04468 eV ==== 
     psi = 0.473*[#   1]+0.473*[#  11]+0.037*[#  22]+0.008*[#   5]+0.008*[#  15]
          
    |psi|^2 = 1.000
==== e(   2) =   -48.03696 eV ==== 
     psi = 0.484*[#   1]+0.484*[#  11]+0.013*[#  21]+0.008*[#   5]+0.008*[#  15]
          +0.001*[#   6]+0.001*[#  16]
    |psi|^2 = 1.000
==== e(   3) =   -21.89929 eV ==== 
     psi = 0.486*[#   2]+0.486*[#  12]+0.009*[#   5]+0.009*[#  15]+0.009*[#  21]
          
    |psi|^2 = 1.000
==== e(   4) =   -21.88553 eV ==== 
     psi = 0.489*[#   2]+0.489*[#  12]+0.010*[#   5]+0.010*[#  15]+0.002*[#  22]
          
    |psi|^2 = 1.000
==== e(   5) =   -21.72126 eV ==== 
     psi = 0.249*[#   3]+0.249*[#   4]+0.249*[#  13]+0.249*[#  14]+0.002*[#  23]
          +0.002*[#  24]
    |psi|^2 = 1.000
==== e(   6) =   -21.72126 eV ==== 
     psi = 0.249*[#   3]+0.249*[#   4]+0.249*[#  13]+0.249*[#  14]+0.002*[#  23]
          +0.002*[#  24]
    |psi|^2 = 1.000
==== e(   7) =   -21.70630 eV ==== 
     psi = 0.250*[#   3]+0.250*[#   4]+0.250*[#  13]+0.250*[#  14]
    |psi|^2 = 1.000
==== e(   8) =   -21.70630 eV ==== 
     psi = 0.250*[#   3]+0.250*[#   4]+0.250*[#  13]+0.250*[#  14]
    |psi|^2 = 1.000
==== e(   9) =     4.00090 eV ==== 
     psi = 0.492*[#  21]+0.224*[#   5]+0.224*[#  15]+0.015*[#   1]+0.015*[#  11]
          +0.013*[#   2]+0.013*[#  12]+0.002*[#   6]+0.002*[#  16]
    |psi|^2 = 0.999
==== e(  10) =     9.63997 eV ==== 
     psi = 0.384*[#  22]+0.218*[#   5]+0.218*[#  15]+0.063*[#   6]+0.063*[#  16]
          +0.025*[#   1]+0.025*[#  11]+0.002*[#   2]+0.002*[#  12]
    |psi|^2 = 0.999
==== e(  11) =    13.15447 eV ==== 
     psi = 0.200*[#  23]+0.200*[#  24]+0.107*[#   9]+0.107*[#  10]+0.107*[#  19]
          +0.107*[#  20]+0.043*[#   7]+0.043*[#   8]+0.043*[#  17]+0.043*[#  18]
          
    |psi|^2 = 0.999
==== e(  12) =    13.15447 eV ==== 
     psi = 0.200*[#  23]+0.200*[#  24]+0.107*[#   9]+0.107*[#  10]+0.107*[#  19]
          +0.107*[#  20]+0.043*[#   7]+0.043*[#   8]+0.043*[#  17]+0.043*[#  18]
          
    |psi|^2 = 0.999
==== e(  13) =    15.01905 eV ==== 
     psi = 0.479*[#   6]+0.479*[#  16]+0.021*[#  21]+0.002*[#   5]+0.002*[#  15]
          
    |psi|^2 = 0.985
==== e(  14) =    15.34968 eV ==== 
     psi = 0.276*[#   6]+0.276*[#  16]+0.183*[#   5]+0.183*[#  15]+0.055*[#  22]
          +0.006*[#   2]+0.006*[#  12]
    |psi|^2 = 0.987
==== e(  15) =    15.86983 eV ==== 
     psi = 0.203*[#   9]+0.203*[#  10]+0.203*[#  19]+0.203*[#  20]+0.045*[#   7]
          +0.045*[#   8]+0.045*[#  17]+0.045*[#  18]
    |psi|^2 = 0.995
==== e(  16) =    15.86983 eV ==== 
     psi = 0.203*[#   9]+0.203*[#  10]+0.203*[#  19]+0.203*[#  20]+0.045*[#   7]
          +0.045*[#   8]+0.045*[#  17]+0.045*[#  18]
    |psi|^2 = 0.995
==== e(  17) =    17.63439 eV ==== 
     psi = 0.203*[#   7]+0.203*[#   8]+0.203*[#  17]+0.203*[#  18]+0.046*[#   9]
          +0.046*[#  10]+0.046*[#  19]+0.046*[#  20]
    |psi|^2 = 0.994
==== e(  18) =    17.63439 eV ==== 
     psi = 0.203*[#   7]+0.203*[#   8]+0.203*[#  17]+0.203*[#  18]+0.046*[#   9]
          +0.046*[#  10]+0.046*[#  19]+0.046*[#  20]
    |psi|^2 = 0.994
==== e(  19) =    17.94773 eV ==== 
     psi = 0.170*[#   7]+0.170*[#   8]+0.170*[#  17]+0.170*[#  18]+0.079*[#   9]
          +0.079*[#  10]+0.079*[#  19]+0.079*[#  20]
    |psi|^2 = 1.000

 k =  -0.0625000000  0.0360843918  0.0000000000
==== e(   1) =   -48.09301 eV ==== 
     psi = 0.459*[#   1]+0.459*[#  11]+0.038*[#   5]+0.038*[#  15]+0.005*[#  21]
          
    |psi|^2 = 1.000
==== e(   2) =   -47.98417 eV ==== 
     psi = 0.469*[#   1]+0.469*[#  11]+0.032*[#  22]+0.011*[#   5]+0.011*[#  15]
          +0.004*[#   6]+0.004*[#  16]
    |psi|^2 = 1.000
==== e(   3) =   -22.18234 eV ==== 
     psi = 0.491*[#   2]+0.491*[#  12]+0.017*[#  21]
    |psi|^2 = 1.000
==== e(   4) =   -21.76883 eV ==== 
     psi = 0.249*[#   3]+0.249*[#   4]+0.249*[#  13]+0.249*[#  14]
    |psi|^2 = 1.000
==== e(   5) =   -21.75962 eV ==== 
     psi = 0.250*[#   3]+0.250*[#   4]+0.250*[#  13]+0.250*[#  14]
    |psi|^2 = 1.000
==== e(   6) =   -21.68732 eV ==== 
     psi = 0.249*[#   3]+0.249*[#   4]+0.249*[#  13]+0.249*[#  14]+0.001*[#  23]
          +0.001*[#  24]
    |psi|^2 = 1.000
==== e(   7) =   -21.67436 eV ==== 
     psi = 0.249*[#   3]+0.249*[#   4]+0.249*[#  13]+0.249*[#  14]+0.002*[#  23]
          +0.002*[#  24]
    |psi|^2 = 1.000
==== e(   8) =   -21.58685 eV ==== 
     psi = 0.498*[#   2]+0.498*[#  12]+0.002*[#  22]
    |psi|^2 = 1.000
==== e(   9) =     3.71421 eV ==== 
     psi = 0.476*[#  21]+0.223*[#   5]+0.223*[#  15]+0.030*[#   1]+0.030*[#  11]
          +0.004*[#   2]+0.004*[#  12]+0.002*[#  23]+0.002*[#  24]
    |psi|^2 = 0.998
==== e(  10) =    10.63799 eV ==== 
     psi = 0.441*[#  22]+0.218*[#   6]+0.218*[#  16]+0.049*[#   5]+0.049*[#  15]
          +0.010*[#   1]+0.010*[#  11]
    |psi|^2 = 1.000
==== e(  11) =    13.10929 eV ==== 
     psi = 0.179*[#  23]+0.179*[#  24]+0.097*[#   9]+0.097*[#  10]+0.097*[#  19]
          +0.097*[#  20]+0.057*[#  21]+0.030*[#   7]+0.030*[#   8]+0.030*[#  17]
          +0.030*[#  18]+0.028*[#   5]+0.028*[#  15]+0.003*[#   1]+0.003*[#  11]
          +0.003*[#   6]+0.003*[#  16]
    |psi|^2 = 0.992
==== e(  12) =    13.39244 eV ==== 
     psi = 0.217*[#  23]+0.217*[#  24]+0.114*[#   9]+0.114*[#  10]+0.114*[#  19]
          +0.114*[#  20]+0.027*[#   7]+0.027*[#   8]+0.027*[#  17]+0.027*[#  18]
          
    |psi|^2 = 0.999
==== e(  13) =    14.24122 eV ==== 
     psi = 0.313*[#  21]+0.174*[#   5]+0.174*[#  15]+0.036*[#  23]+0.036*[#  24]
          +0.020*[#   9]+0.020*[#  10]+0.020*[#  19]+0.020*[#  20]+0.010*[#   6]
          +0.010*[#  16]+0.007*[#   1]+0.007*[#  11]+0.004*[#   2]+0.004*[#  12]
          +0.004*[#   7]+0.004*[#   8]+0.004*[#  17]+0.004*[#  18]
    |psi|^2 = 0.873
==== e(  14) =    16.16890 eV ==== 
     psi = 0.213*[#   9]+0.213*[#  10]+0.213*[#  19]+0.213*[#  20]+0.024*[#   7]
          +0.024*[#   8]+0.024*[#  17]+0.024*[#  18]+0.017*[#  22]+0.016*[#   6]
          +0.016*[#  16]
    |psi|^2 = 0.995
==== e(  15) =    16.29440 eV ==== 
     psi = 0.461*[#   6]+0.461*[#  16]+0.011*[#   7]+0.011*[#   8]+0.011*[#  17]
          +0.011*[#  18]+0.009*[#  21]+0.004*[#   5]+0.004*[#  15]+0.003*[#  23]
          +0.003*[#  24]+0.001*[#   9]+0.001*[#  10]+0.001*[#  19]+0.001*[#  20]
          
    |psi|^2 = 0.994
==== e(  16) =    16.39539 eV ==== 
     psi = 0.197*[#   9]+0.197*[#  10]+0.197*[#  19]+0.197*[#  20]+0.052*[#   7]
          +0.052*[#   8]+0.052*[#  17]+0.052*[#  18]
    |psi|^2 = 0.997
==== e(  17) =    16.55634 eV ==== 
     psi = 0.194*[#   7]+0.194*[#   8]+0.194*[#  17]+0.194*[#  18]+0.043*[#   9]
          +0.043*[#  10]+0.043*[#  19]+0.043*[#  20]+0.021*[#   6]+0.021*[#  16]
          
    |psi|^2 = 0.993
==== e(  18) =    16.58506 eV ==== 
     psi = 0.177*[#   7]+0.177*[#   8]+0.177*[#  17]+0.177*[#  18]+0.071*[#   9]
          +0.071*[#  10]+0.071*[#  19]+0.071*[#  20]
    |psi|^2 = 0.993
==== e(  19) =    17.67909 eV ==== 
     psi = 0.178*[#   7]+0.178*[#   8]+0.178*[#  17]+0.178*[#  18]+0.062*[#   9]
          +0.062*[#  10]+0.062*[#  19]+0.062*[#  20]+0.019*[#  23]+0.019*[#  24]
          
    |psi|^2 = 0.998

 k =  -0.0625000000  0.0360843918 -0.0640405144
==== e(   1) =   -48.09039 eV ==== 
     psi = 0.460*[#   1]+0.460*[#  11]+0.037*[#   5]+0.037*[#  15]+0.005*[#  21]
          
    |psi|^2 = 1.000
==== e(   2) =   -47.98685 eV ==== 
     psi = 0.471*[#   1]+0.471*[#  11]+0.032*[#  22]+0.008*[#   5]+0.008*[#  15]
          +0.004*[#   6]+0.004*[#  16]
    |psi|^2 = 1.000
==== e(   3) =   -22.16859 eV ==== 
     psi = 0.490*[#   2]+0.490*[#  12]+0.016*[#  21]+0.001*[#   5]+0.001*[#  15]
          
    |psi|^2 = 1.000
==== e(   4) =   -21.76754 eV ==== 
     psi = 0.249*[#   3]+0.249*[#   4]+0.249*[#  13]+0.249*[#  14]+0.001*[#   2]
          +0.001*[#  12]
    |psi|^2 = 1.000
==== e(   5) =   -21.75676 eV ==== 
     psi = 0.250*[#   3]+0.250*[#   4]+0.250*[#  13]+0.250*[#  14]
    |psi|^2 = 1.000
==== e(   6) =   -21.68949 eV ==== 
     psi = 0.246*[#   3]+0.246*[#   4]+0.246*[#  13]+0.246*[#  14]+0.006*[#   2]
          +0.006*[#  12]+0.001*[#  23]+0.001*[#  24]
    |psi|^2 = 1.000
==== e(   7) =   -21.67724 eV ==== 
     psi = 0.249*[#   3]+0.249*[#   4]+0.249*[#  13]+0.249*[#  14]+0.002*[#  23]
          +0.002*[#  24]
    |psi|^2 = 1.000
==== e(   8) =   -21.60072 eV ==== 
     psi = 0.491*[#   2]+0.491*[#  12]+0.004*[#   3]+0.004*[#   4]+0.004*[#  13]
          +0.004*[#  14]+0.002*[#  22]
    |psi|^2 = 1.000
==== e(   9) =     3.74386 eV ==== 
     psi = 0.477*[#  21]+0.223*[#   5]+0.223*[#  15]+0.028*[#   1]+0.028*[#  11]
          +0.005*[#   2]+0.005*[#  12]+0.002*[#  23]+0.002*[#  24]
    |psi|^2 = 0.998
==== e(  10) =    10.54706 eV ==== 
     psi = 0.434*[#  22]+0.196*[#   6]+0.196*[#  16]+0.069*[#   5]+0.069*[#  15]
          +0.011*[#   1]+0.011*[#  11]+0.008*[#  21]
    |psi|^2 = 0.999
==== e(  11) =    13.09280 eV ==== 
     psi = 0.185*[#  23]+0.185*[#  24]+0.100*[#   9]+0.100*[#  10]+0.100*[#  19]
          +0.100*[#  20]+0.038*[#  21]+0.032*[#   7]+0.032*[#   8]+0.032*[#  17]
          +0.032*[#  18]+0.020*[#   5]+0.020*[#  15]+0.005*[#   6]+0.005*[#  16]
          +0.002*[#   1]+0.002*[#  11]+0.001*[#  22]
    |psi|^2 = 0.995
==== e(  12) =    13.40460 eV ==== 
     psi = 0.218*[#  23]+0.218*[#  24]+0.114*[#   9]+0.114*[#  10]+0.114*[#  19]
          +0.114*[#  20]+0.026*[#   7]+0.026*[#   8]+0.026*[#  17]+0.026*[#  18]
          
    |psi|^2 = 0.999
==== e(  13) =    14.26154 eV ==== 
     psi = 0.276*[#  21]+0.183*[#   5]+0.183*[#  15]+0.045*[#   6]+0.045*[#  16]
          +0.026*[#  23]+0.026*[#  24]+0.014*[#   9]+0.014*[#  10]+0.014*[#  19]
          +0.014*[#  20]+0.008*[#   1]+0.008*[#  11]+0.007*[#   7]+0.007*[#   8]
          +0.007*[#  17]+0.007*[#  18]+0.005*[#   2]+0.005*[#  12]+0.003*[#  22]
          
    |psi|^2 = 0.896
==== e(  14) =    16.06945 eV ==== 
     psi = 0.190*[#   6]+0.190*[#  16]+0.119*[#   9]+0.119*[#  10]+0.119*[#  19]
          +0.119*[#  20]+0.026*[#   7]+0.026*[#   8]+0.026*[#  17]+0.026*[#  18]
          +0.017*[#  22]+0.008*[#  21]+0.005*[#   5]+0.005*[#  15]
    |psi|^2 = 0.995
==== e(  15) =    16.27242 eV ==== 
     psi = 0.257*[#   6]+0.257*[#  16]+0.113*[#   9]+0.113*[#  10]+0.113*[#  19]
          +0.113*[#  20]+0.005*[#   7]+0.005*[#   8]+0.005*[#  17]+0.005*[#  18]
          +0.001*[#  21]+0.001*[#   5]+0.001*[#  15]
    |psi|^2 = 0.993
==== e(  16) =    16.36650 eV ==== 
     psi = 0.235*[#   9]+0.235*[#  10]+0.235*[#  19]+0.235*[#  20]+0.013*[#   7]
          +0.013*[#   8]+0.013*[#  17]+0.013*[#  18]
    |psi|^2 = 0.994
==== e(  17) =    16.50886 eV ==== 
     psi = 0.228*[#   7]+0.228*[#   8]+0.228*[#  17]+0.228*[#  18]+0.019*[#   9]
          +0.019*[#  10]+0.019*[#  19]+0.019*[#  20]+0.003*[#  23]+0.003*[#  24]
          
    |psi|^2 = 0.996
==== e(  18) =    16.75440 eV ==== 
     psi = 0.193*[#   7]+0.193*[#   8]+0.193*[#  17]+0.193*[#  18]+0.044*[#   6]
          +0.044*[#  16]+0.033*[#   9]+0.033*[#  10]+0.033*[#  19]+0.033*[#  20]
          
    |psi|^2 = 0.994
==== e(  19) =    17.73928 eV ==== 
     psi = 0.168*[#   7]+0.168*[#   8]+0.168*[#  17]+0.168*[#  18]+0.053*[#   9]
          +0.053*[#  10]+0.053*[#  19]+0.053*[#  20]+0.027*[#  23]+0.027*[#  24]
          +0.014*[#  21]+0.010*[#   6]+0.010*[#  16]+0.007*[#  22]+0.006*[#   5]
          +0.006*[#  15]
    |psi|^2 = 0.993

 k =  -0.0625000000  0.0360843918 -0.1280810288
==== e(   1) =   -48.08276 eV ==== 
     psi = 0.463*[#   1]+0.463*[#  11]+0.032*[#   5]+0.032*[#  15]+0.005*[#  21]
          +0.004*[#  22]
    |psi|^2 = 1.000
==== e(   2) =   -47.99459 eV ==== 
     psi = 0.476*[#   1]+0.476*[#  11]+0.030*[#  22]+0.003*[#   6]+0.003*[#  16]
          +0.003*[#   5]+0.003*[#  15]+0.003*[#  21]
    |psi|^2 = 1.000
==== e(   3) =   -22.12853 eV ==== 
     psi = 0.487*[#   2]+0.487*[#  12]+0.014*[#  21]+0.004*[#   5]+0.004*[#  15]
          
    |psi|^2 = 1.000
==== e(   4) =   -21.76216 eV ==== 
     psi = 0.247*[#   3]+0.247*[#   4]+0.247*[#  13]+0.247*[#  14]+0.004*[#   2]
          +0.004*[#  12]
    |psi|^2 = 1.000
==== e(   5) =   -21.75015 eV ==== 
     psi = 0.250*[#   3]+0.250*[#   4]+0.250*[#  13]+0.250*[#  14]
    |psi|^2 = 1.000
==== e(   6) =   -21.70007 eV ==== 
     psi = 0.222*[#   3]+0.222*[#   4]+0.222*[#  13]+0.222*[#  14]+0.054*[#   2]
          +0.054*[#  12]+0.002*[#   5]+0.002*[#  15]
    |psi|^2 = 1.000
==== e(   7) =   -21.68389 eV ==== 
     psi = 0.249*[#   3]+0.249*[#   4]+0.249*[#  13]+0.249*[#  14]+0.002*[#  23]
          +0.002*[#  24]
    |psi|^2 = 1.000
==== e(   8) =   -21.63821 eV ==== 
     psi = 0.439*[#   2]+0.439*[#  12]+0.029*[#   3]+0.029*[#   4]+0.029*[#  13]
          +0.029*[#  14]+0.002*[#  22]+0.001*[#   5]+0.001*[#  15]
    |psi|^2 = 1.000
==== e(   9) =     3.82411 eV ==== 
     psi = 0.479*[#  21]+0.223*[#   5]+0.223*[#  15]+0.025*[#   1]+0.025*[#  11]
          +0.007*[#   2]+0.007*[#  12]+0.002*[#  23]+0.002*[#  24]+0.001*[#   7]
          +0.001*[#   8]+0.001*[#  17]+0.001*[#  18]
    |psi|^2 = 0.999
==== e(  10) =    10.31606 eV ==== 
     psi = 0.420*[#  22]+0.148*[#   6]+0.148*[#  16]+0.116*[#   5]+0.116*[#  15]
          +0.017*[#  21]+0.014*[#   1]+0.014*[#  11]+0.001*[#   2]+0.001*[#  12]
          
    |psi|^2 = 0.998
==== e(  11) =    13.07290 eV ==== 
     psi = 0.194*[#  23]+0.194*[#  24]+0.103*[#   9]+0.103*[#  10]+0.103*[#  19]
          +0.103*[#  20]+0.036*[#   7]+0.036*[#   8]+0.036*[#  17]+0.036*[#  18]
          +0.016*[#  21]+0.010*[#   5]+0.010*[#  15]+0.006*[#   6]+0.006*[#  16]
          +0.002*[#  22]+0.001*[#   1]+0.001*[#  11]
    |psi|^2 = 0.998
==== e(  12) =    13.36381 eV ==== 
     psi = 0.215*[#  23]+0.215*[#  24]+0.112*[#   9]+0.112*[#  10]+0.112*[#  19]
          +0.112*[#  20]+0.030*[#   7]+0.030*[#   8]+0.030*[#  17]+0.030*[#  18]
          
    |psi|^2 = 0.999
==== e(  13) =    14.36885 eV ==== 
     psi = 0.183*[#  21]+0.180*[#   5]+0.180*[#  15]+0.133*[#   6]+0.133*[#  16]
          +0.013*[#  23]+0.013*[#  24]+0.011*[#  22]+0.010*[#   7]+0.010*[#   8]
          +0.010*[#  17]+0.010*[#  18]+0.007*[#   1]+0.007*[#  11]+0.006*[#   9]
          +0.006*[#  10]+0.006*[#  19]+0.006*[#  20]+0.005*[#   2]+0.005*[#  12]
          
    |psi|^2 = 0.936
==== e(  14) =    15.91067 eV ==== 
     psi = 0.306*[#   6]+0.306*[#  16]+0.062*[#   9]+0.062*[#  10]+0.062*[#  19]
          +0.062*[#  20]+0.022*[#  22]+0.017*[#   5]+0.017*[#  15]+0.016*[#   7]
          +0.016*[#   8]+0.016*[#  17]+0.016*[#  18]+0.010*[#  21]
    |psi|^2 = 0.994
==== e(  15) =    16.15750 eV ==== 
     psi = 0.170*[#   9]+0.170*[#  10]+0.170*[#  19]+0.170*[#  20]+0.125*[#   6]
          +0.125*[#  16]+0.015*[#   7]+0.015*[#   8]+0.015*[#  17]+0.015*[#  18]
          
    |psi|^2 = 0.993
==== e(  16) =    16.18971 eV ==== 
     psi = 0.200*[#   9]+0.200*[#  10]+0.200*[#  19]+0.200*[#  20]+0.048*[#   7]
          +0.048*[#   8]+0.048*[#  17]+0.048*[#  18]+0.001*[#  23]+0.001*[#  24]
          
    |psi|^2 = 0.994
==== e(  17) =    16.69308 eV ==== 
     psi = 0.202*[#   7]+0.202*[#   8]+0.202*[#  17]+0.202*[#  18]+0.044*[#   9]
          +0.044*[#  10]+0.044*[#  19]+0.044*[#  20]+0.005*[#  23]+0.005*[#  24]
          
    |psi|^2 = 0.996
==== e(  18) =    17.01511 eV ==== 
     psi = 0.193*[#   7]+0.193*[#   8]+0.193*[#  17]+0.193*[#  18]+0.040*[#   6]
          +0.040*[#  16]+0.035*[#   9]+0.035*[#  10]+0.035*[#  19]+0.035*[#  20]
          +0.002*[#   5]+0.002*[#  15]
    |psi|^2 = 0.994
==== e(  19) =    17.83752 eV ==== 
     psi = 0.167*[#   7]+0.167*[#   8]+0.167*[#  17]+0.167*[#  18]+0.054*[#   9]
          +0.054*[#  10]+0.054*[#  19]+0.054*[#  20]+0.021*[#   6]+0.021*[#  16]
          +0.020*[#  23]+0.020*[#  24]+0.012*[#  22]+0.007*[#  21]+0.005*[#   5]
          +0.005*[#  15]
    |psi|^2 = 0.996

 k =  -0.0625000000  0.0360843918 -0.1921215432
==== e(   1) =   -48.07089 eV ==== 
     psi = 0.468*[#   1]+0.468*[#  11]+0.025*[#   5]+0.025*[#  15]+0.008*[#  22]
          +0.005*[#  21]
    |psi|^2 = 1.000
==== e(   2) =   -48.00662 eV ==== 
     psi = 0.481*[#   1]+0.481*[#  11]+0.027*[#  22]+0.005*[#  21]+0.003*[#   6]
          +0.003*[#  16]
    |psi|^2 = 1.000
==== e(   3) =   -22.06584 eV ==== 
     psi = 0.483*[#   2]+0.483*[#  12]+0.011*[#  21]+0.007*[#   5]+0.007*[#  15]
          +0.002*[#   3]+0.002*[#   4]+0.002*[#  13]+0.002*[#  14]
    |psi|^2 = 1.000
==== e(   4) =   -21.75576 eV ==== 
     psi = 0.219*[#   3]+0.219*[#   4]+0.219*[#  13]+0.219*[#  14]+0.058*[#   2]
          +0.058*[#  12]+0.001*[#   5]+0.001*[#  15]+0.001*[#  23]+0.001*[#  24]
          
    |psi|^2 = 1.000
==== e(   5) =   -21.74054 eV ==== 
     psi = 0.250*[#   3]+0.250*[#   4]+0.250*[#  13]+0.250*[#  14]
    |psi|^2 = 1.000
==== e(   6) =   -21.73150 eV ==== 
     psi = 0.241*[#   2]+0.241*[#  12]+0.127*[#   3]+0.127*[#   4]+0.127*[#  13]
          +0.127*[#  14]+0.004*[#   5]+0.004*[#  15]
    |psi|^2 = 1.000
==== e(   7) =   -21.69353 eV ==== 
     psi = 0.249*[#   3]+0.249*[#   4]+0.249*[#  13]+0.249*[#  14]+0.002*[#  23]
          +0.002*[#  24]
    |psi|^2 = 1.000
==== e(   8) =   -21.67913 eV ==== 
     psi = 0.198*[#   2]+0.198*[#  12]+0.150*[#   3]+0.150*[#   4]+0.150*[#  13]
          +0.150*[#  14]+0.001*[#  22]
    |psi|^2 = 1.000
==== e(   9) =     3.92843 eV ==== 
     psi = 0.486*[#  21]+0.221*[#   5]+0.221*[#  15]+0.020*[#   1]+0.020*[#  11]
          +0.010*[#   2]+0.010*[#  12]+0.002*[#  23]+0.002*[#  24]+0.001*[#   7]
          +0.001*[#   8]+0.001*[#  17]+0.001*[#  18]
    |psi|^2 = 0.999
==== e(  10) =    10.04069 eV ==== 
     psi = 0.405*[#  22]+0.166*[#   5]+0.166*[#  15]+0.102*[#   6]+0.102*[#  16]
          +0.018*[#   1]+0.018*[#  11]+0.014*[#  21]+0.002*[#   2]+0.002*[#  12]
          
    |psi|^2 = 0.999
==== e(  11) =    13.05027 eV ==== 
     psi = 0.200*[#  23]+0.200*[#  24]+0.104*[#   9]+0.104*[#  10]+0.104*[#  19]
          +0.104*[#  20]+0.040*[#   7]+0.040*[#   8]+0.040*[#  17]+0.040*[#  18]
          +0.006*[#  21]+0.004*[#   5]+0.004*[#  15]+0.003*[#   6]+0.003*[#  16]
          
    |psi|^2 = 0.999
==== e(  12) =    13.29155 eV ==== 
     psi = 0.210*[#  23]+0.210*[#  24]+0.108*[#   9]+0.108*[#  10]+0.108*[#  19]
          +0.108*[#  20]+0.036*[#   7]+0.036*[#   8]+0.036*[#  17]+0.036*[#  18]
          
    |psi|^2 = 0.999
==== e(  13) =    14.56296 eV ==== 
     psi = 0.236*[#   6]+0.236*[#  16]+0.150*[#   5]+0.150*[#  15]+0.094*[#  21]
          +0.017*[#  22]+0.011*[#   7]+0.011*[#   8]+0.011*[#  17]+0.011*[#  18]
          +0.005*[#  23]+0.005*[#  24]+0.005*[#   2]+0.005*[#  12]+0.004*[#   1]
          +0.004*[#  11]+0.002*[#   9]+0.002*[#  10]+0.002*[#  19]+0.002*[#  20]
          
    |psi|^2 = 0.964
==== e(  14) =    15.71060 eV ==== 
     psi = 0.384*[#   6]+0.384*[#  16]+0.040*[#   5]+0.040*[#  15]+0.028*[#  22]
          +0.015*[#   9]+0.015*[#  10]+0.015*[#  19]+0.015*[#  20]+0.012*[#   7]
          +0.012*[#   8]+0.012*[#  17]+0.012*[#  18]+0.005*[#  21]+0.001*[#   2]
          +0.001*[#  12]
    |psi|^2 = 0.993
==== e(  15) =    15.98899 eV ==== 
     psi = 0.208*[#   9]+0.208*[#  10]+0.208*[#  19]+0.208*[#  20]+0.028*[#   6]
          +0.028*[#  16]+0.024*[#   7]+0.024*[#   8]+0.024*[#  17]+0.024*[#  18]
          +0.001*[#   5]+0.001*[#  15]+0.001*[#  21]+0.001*[#  22]
    |psi|^2 = 0.993
==== e(  16) =    16.03440 eV ==== 
     psi = 0.195*[#   9]+0.195*[#  10]+0.195*[#  19]+0.195*[#  20]+0.053*[#   7]
          +0.053*[#   8]+0.053*[#  17]+0.053*[#  18]
    |psi|^2 = 0.994
==== e(  17) =    16.99905 eV ==== 
     psi = 0.199*[#   7]+0.199*[#   8]+0.199*[#  17]+0.199*[#  18]+0.046*[#   9]
          +0.046*[#  10]+0.046*[#  19]+0.046*[#  20]+0.006*[#  23]+0.006*[#  24]
          
    |psi|^2 = 0.995
==== e(  18) =    17.31043 eV ==== 
     psi = 0.186*[#   7]+0.186*[#   8]+0.186*[#  17]+0.186*[#  18]+0.045*[#   9]
          +0.045*[#  10]+0.045*[#  19]+0.045*[#  20]+0.032*[#   6]+0.032*[#  16]
          +0.003*[#   5]+0.003*[#  15]
    |psi|^2 = 0.995
==== e(  19) =    17.94419 eV ==== 
     psi = 0.172*[#   7]+0.172*[#   8]+0.172*[#  17]+0.172*[#  18]+0.055*[#   9]
          +0.055*[#  10]+0.055*[#  19]+0.055*[#  20]+0.024*[#   6]+0.024*[#  16]
          +0.011*[#  22]+0.010*[#  23]+0.010*[#  24]+0.004*[#  21]+0.003*[#   5]
          +0.003*[#  15]
    |psi|^2 = 0.997

 k =  -0.0625000000  0.0360843918 -0.2561620576
==== e(   1) =   -48.05601 eV ==== 
     psi = 0.473*[#   1]+0.473*[#  11]+0.016*[#   5]+0.016*[#  15]+0.016*[#  22]
          +0.005*[#  21]
    |psi|^2 = 1.000
==== e(   2) =   -48.02161 eV ==== 
     psi = 0.482*[#   1]+0.482*[#  11]+0.020*[#  22]+0.007*[#  21]+0.002*[#   6]
          +0.002*[#  16]+0.002*[#   5]+0.002*[#  15]
    |psi|^2 = 1.000
==== e(   3) =   -21.98654 eV ==== 
     psi = 0.477*[#   2]+0.477*[#  12]+0.009*[#   5]+0.009*[#  15]+0.008*[#  21]
          +0.005*[#   3]+0.005*[#   4]+0.005*[#  13]+0.005*[#  14]
    |psi|^2 = 1.000
==== e(   4) =   -21.80949 eV ==== 
     psi = 0.431*[#   2]+0.431*[#  12]+0.029*[#   3]+0.029*[#   4]+0.029*[#  13]
          +0.029*[#  14]+0.008*[#   5]+0.008*[#  15]+0.002*[#  21]
    |psi|^2 = 1.000
==== e(   5) =   -21.73757 eV ==== 
     psi = 0.239*[#   3]+0.239*[#   4]+0.239*[#  13]+0.239*[#  14]+0.020*[#   2]
          +0.020*[#  12]+0.002*[#  23]+0.002*[#  24]
    |psi|^2 = 1.000
==== e(   6) =   -21.72944 eV ==== 
     psi = 0.250*[#   3]+0.250*[#   4]+0.250*[#  13]+0.250*[#  14]
    |psi|^2 = 1.000
==== e(   7) =   -21.70465 eV ==== 
     psi = 0.249*[#   3]+0.249*[#   4]+0.249*[#  13]+0.249*[#  14]+0.001*[#  23]
          +0.001*[#  24]
    |psi|^2 = 1.000
==== e(   8) =   -21.70127 eV ==== 
     psi = 0.225*[#   3]+0.225*[#   4]+0.225*[#  13]+0.225*[#  14]+0.049*[#   2]
          +0.049*[#  12]
    |psi|^2 = 1.000
==== e(   9) =     4.01755 eV ==== 
     psi = 0.494*[#  21]+0.218*[#   5]+0.218*[#  15]+0.016*[#   1]+0.016*[#  11]
          +0.012*[#   2]+0.012*[#  12]+0.002*[#   6]+0.002*[#  16]+0.001*[#  23]
          +0.001*[#  24]+0.001*[#   7]+0.001*[#   8]+0.001*[#  17]+0.001*[#  18]
          
    |psi|^2 = 0.999
==== e(  10) =     9.82286 eV ==== 
     psi = 0.394*[#  22]+0.203*[#   5]+0.203*[#  15]+0.072*[#   6]+0.072*[#  16]
          +0.022*[#   1]+0.022*[#  11]+0.005*[#  21]+0.002*[#   2]+0.002*[#  12]
          
    |psi|^2 = 0.999
==== e(  11) =    13.04027 eV ==== 
     psi = 0.202*[#  23]+0.202*[#  24]+0.104*[#   9]+0.104*[#  10]+0.104*[#  19]
          +0.104*[#  20]+0.042*[#   7]+0.042*[#   8]+0.042*[#  17]+0.042*[#  18]
          +0.003*[#  21]+0.002*[#   5]+0.002*[#  15]
    |psi|^2 = 0.999
==== e(  12) =    13.21840 eV ==== 
     psi = 0.206*[#  23]+0.206*[#  24]+0.105*[#   9]+0.105*[#  10]+0.105*[#  19]
          +0.105*[#  20]+0.042*[#   7]+0.042*[#   8]+0.042*[#  17]+0.042*[#  18]
          
    |psi|^2 = 0.999
==== e(  13) =    14.81692 eV ==== 
     psi = 0.333*[#   6]+0.333*[#  16]+0.099*[#   5]+0.099*[#  15]+0.037*[#  21]
          +0.018*[#  22]+0.011*[#   7]+0.011*[#   8]+0.011*[#  17]+0.011*[#  18]
          +0.003*[#   2]+0.003*[#  12]+0.002*[#  23]+0.002*[#  24]+0.002*[#   1]
          +0.002*[#  11]
    |psi|^2 = 0.979
==== e(  14) =    15.45369 eV ==== 
     psi = 0.371*[#   6]+0.371*[#  16]+0.075*[#   5]+0.075*[#  15]+0.033*[#  22]
          +0.015*[#   7]+0.015*[#   8]+0.015*[#  17]+0.015*[#  18]+0.003*[#   2]
          +0.003*[#  12]
    |psi|^2 = 0.991
==== e(  15) =    15.86287 eV ==== 
     psi = 0.215*[#   9]+0.215*[#  10]+0.215*[#  19]+0.215*[#  20]+0.028*[#   7]
          +0.028*[#   8]+0.028*[#  17]+0.028*[#  18]+0.008*[#   5]+0.008*[#  15]
          +0.004*[#  22]+0.001*[#  21]
    |psi|^2 = 0.994
==== e(  16) =    15.94398 eV ==== 
     psi = 0.196*[#   9]+0.196*[#  10]+0.196*[#  19]+0.196*[#  20]+0.052*[#   7]
          +0.052*[#   8]+0.052*[#  17]+0.052*[#  18]
    |psi|^2 = 0.995
==== e(  17) =    17.34378 eV ==== 
     psi = 0.197*[#   7]+0.197*[#   8]+0.197*[#  17]+0.197*[#  18]+0.049*[#   9]
          +0.049*[#  10]+0.049*[#  19]+0.049*[#  20]+0.005*[#  23]+0.005*[#  24]
          
    |psi|^2 = 0.995
==== e(  18) =    17.57745 eV ==== 
     psi = 0.178*[#   7]+0.178*[#   8]+0.178*[#  17]+0.178*[#  18]+0.052*[#   9]
          +0.052*[#  10]+0.052*[#  19]+0.052*[#  20]+0.032*[#   6]+0.032*[#  16]
          +0.004*[#   5]+0.004*[#  15]
    |psi|^2 = 0.995
==== e(  19) =    17.95653 eV ==== 
     psi = 0.179*[#   7]+0.179*[#   8]+0.179*[#  17]+0.179*[#  18]+0.056*[#   9]
          +0.056*[#  10]+0.056*[#  19]+0.056*[#  20]+0.020*[#   6]+0.020*[#  16]
          +0.006*[#  22]+0.003*[#  21]+0.003*[#  23]+0.003*[#  24]+0.002*[#   5]
          +0.002*[#  15]
    |psi|^2 = 0.998

 k =  -0.0625000000  0.0360843918  0.3202025720
==== e(   1) =   -48.04262 eV ==== 
     psi = 0.474*[#   1]+0.474*[#  11]+0.036*[#  22]+0.007*[#   5]+0.007*[#  15]
          
    |psi|^2 = 1.000
==== e(   2) =   -48.03505 eV ==== 
     psi = 0.484*[#   1]+0.484*[#  11]+0.013*[#  21]+0.007*[#   5]+0.007*[#  15]
          +0.001*[#   6]+0.001*[#  16]
    |psi|^2 = 1.000
==== e(   3) =   -21.90629 eV ==== 
     psi = 0.459*[#   2]+0.459*[#  12]+0.013*[#   3]+0.013*[#   4]+0.013*[#  13]
          +0.013*[#  14]+0.009*[#   5]+0.009*[#  15]+0.009*[#  21]
    |psi|^2 = 1.000
==== e(   4) =   -21.88864 eV ==== 
     psi = 0.474*[#   2]+0.474*[#  12]+0.010*[#   5]+0.010*[#  15]+0.008*[#   3]
          +0.008*[#   4]+0.008*[#  13]+0.008*[#  14]+0.001*[#  22]
    |psi|^2 = 1.000
==== e(   5) =   -21.72577 eV ==== 
     psi = 0.236*[#   3]+0.236*[#   4]+0.236*[#  13]+0.236*[#  14]+0.026*[#   2]
          +0.026*[#  12]+0.002*[#  23]+0.002*[#  24]
    |psi|^2 = 1.000
==== e(   6) =   -21.72437 eV ==== 
     psi = 0.249*[#   3]+0.249*[#   4]+0.249*[#  13]+0.249*[#  14]+0.002*[#  23]
          +0.002*[#  24]
    |psi|^2 = 1.000
==== e(   7) =   -21.71518 eV ==== 
     psi = 0.242*[#   3]+0.242*[#   4]+0.242*[#  13]+0.242*[#  14]+0.016*[#   2]
          +0.016*[#  12]
    |psi|^2 = 1.000
==== e(   8) =   -21.70973 eV ==== 
     psi = 0.250*[#   3]+0.250*[#   4]+0.250*[#  13]+0.250*[#  14]
    |psi|^2 = 1.000
==== e(   9) =     4.05300 eV ==== 
     psi = 0.497*[#  21]+0.217*[#   5]+0.217*[#  15]+0.014*[#   1]+0.014*[#  11]
          +0.013*[#   2]+0.013*[#  12]+0.002*[#   6]+0.002*[#  16]+0.002*[#  23]
          +0.002*[#  24]+0.001*[#   7]+0.001*[#   8]+0.001*[#  17]+0.001*[#  18]
          
    |psi|^2 = 0.999
==== e(  10) =     9.73991 eV ==== 
     psi = 0.389*[#  22]+0.216*[#   5]+0.216*[#  15]+0.062*[#   6]+0.062*[#  16]
          +0.023*[#   1]+0.023*[#  11]+0.002*[#   2]+0.002*[#  12]
    |psi|^2 = 0.999
==== e(  11) =    13.05322 eV ==== 
     psi = 0.203*[#  23]+0.203*[#  24]+0.104*[#   9]+0.104*[#  10]+0.104*[#  19]
          +0.104*[#  20]+0.042*[#   7]+0.042*[#   8]+0.042*[#  17]+0.042*[#  18]
          +0.002*[#  21]+0.002*[#   5]+0.002*[#  15]
    |psi|^2 = 0.999
==== e(  12) =    13.16909 eV ==== 
     psi = 0.203*[#  23]+0.203*[#  24]+0.103*[#   9]+0.103*[#  10]+0.103*[#  19]
          +0.103*[#  20]+0.045*[#   7]+0.045*[#   8]+0.045*[#  17]+0.045*[#  18]
          
    |psi|^2 = 0.999
==== e(  13) =    15.04212 eV ==== 
     psi = 0.473*[#   6]+0.473*[#  16]+0.017*[#  21]+0.003*[#   5]+0.003*[#  15]
          +0.002*[#   7]+0.002*[#   8]+0.002*[#  17]+0.002*[#  18]+0.002*[#  23]
          +0.002*[#  24]
    |psi|^2 = 0.985
==== e(  14) =    15.22536 eV ==== 
     psi = 0.247*[#   6]+0.247*[#  16]+0.161*[#   5]+0.161*[#  15]+0.053*[#  22]
          +0.026*[#   7]+0.026*[#   8]+0.026*[#  17]+0.026*[#  18]+0.005*[#   2]
          +0.005*[#  12]+0.001*[#   9]+0.001*[#  10]+0.001*[#  19]+0.001*[#  20]
          
    |psi|^2 = 0.988
==== e(  15) =    15.80740 eV ==== 
     psi = 0.210*[#   9]+0.210*[#  10]+0.210*[#  19]+0.210*[#  20]+0.030*[#   7]
          +0.030*[#   8]+0.030*[#  17]+0.030*[#  18]+0.012*[#   5]+0.012*[#  15]
          +0.006*[#  22]+0.002*[#   6]+0.002*[#  16]
    |psi|^2 = 0.994
==== e(  16) =    15.93152 eV ==== 
     psi = 0.201*[#   9]+0.201*[#  10]+0.201*[#  19]+0.201*[#  20]+0.048*[#   7]
          +0.048*[#   8]+0.048*[#  17]+0.048*[#  18]
    |psi|^2 = 0.995
==== e(  17) =    17.60045 eV ==== 
     psi = 0.193*[#   7]+0.193*[#   8]+0.193*[#  17]+0.193*[#  18]+0.054*[#   9]
          +0.054*[#  10]+0.054*[#  19]+0.054*[#  20]+0.002*[#  23]+0.002*[#  24]
          
    |psi|^2 = 0.994
==== e(  18) =    17.65337 eV ==== 
     psi = 0.181*[#   7]+0.181*[#   8]+0.181*[#  17]+0.181*[#  18]+0.046*[#   6]
          +0.046*[#  16]+0.039*[#   9]+0.039*[#  10]+0.039*[#  19]+0.039*[#  20]
          +0.006*[#   5]+0.006*[#  15]+0.004*[#  22]+0.002*[#  23]+0.002*[#  24]
          
    |psi|^2 = 0.994
==== e(  19) =    17.92874 eV ==== 
     psi = 0.171*[#   7]+0.171*[#   8]+0.171*[#  17]+0.171*[#  18]+0.075*[#   9]
          +0.075*[#  10]+0.075*[#  19]+0.075*[#  20]+0.004*[#   6]+0.004*[#  16]
          +0.003*[#  21]+0.001*[#  23]+0.001*[#  24]
    |psi|^2 = 0.999

 k =  -0.1250000000  0.0721687836  0.0000000000
==== e(   1) =   -48.08462 eV ==== 
     psi = 0.463*[#   1]+0.463*[#  11]+0.032*[#   5]+0.032*[#  15]+0.005*[#  21]
          +0.002*[#  23]+0.002*[#  24]
    |psi|^2 = 1.000
==== e(   2) =   -47.98133 eV ==== 
     psi = 0.470*[#   1]+0.470*[#  11]+0.029*[#  22]+0.012*[#   5]+0.012*[#  15]
          +0.004*[#   6]+0.004*[#  16]
    |psi|^2 = 1.000
==== e(   3) =   -22.16087 eV ==== 
     psi = 0.490*[#   2]+0.490*[#  12]+0.015*[#  21]+0.002*[#  23]+0.002*[#  24]
          
    |psi|^2 = 1.000
==== e(   4) =   -21.81036 eV ==== 
     psi = 0.248*[#   3]+0.248*[#   4]+0.248*[#  13]+0.248*[#  14]+0.002*[#  22]
          
    |psi|^2 = 1.000
==== e(   5) =   -21.77443 eV ==== 
     psi = 0.249*[#   3]+0.249*[#   4]+0.249*[#  13]+0.249*[#  14]+0.001*[#  23]
          +0.001*[#  24]
    |psi|^2 = 1.000
==== e(   6) =   -21.72707 eV ==== 
     psi = 0.248*[#   3]+0.248*[#   4]+0.248*[#  13]+0.248*[#  14]+0.003*[#   5]
          +0.003*[#  15]
    |psi|^2 = 1.000
==== e(   7) =   -21.67805 eV ==== 
     psi = 0.249*[#   3]+0.249*[#   4]+0.249*[#  13]+0.249*[#  14]+0.001*[#  23]
          +0.001*[#  24]
    |psi|^2 = 1.000
==== e(   8) =   -21.59552 eV ==== 
     psi = 0.497*[#   2]+0.497*[#  12]+0.002*[#  22]
    |psi|^2 = 1.000
==== e(   9) =     3.90813 eV ==== 
     psi = 0.486*[#  21]+0.209*[#   5]+0.209*[#  15]+0.026*[#   1]+0.026*[#  11]
          +0.006*[#  23]+0.006*[#  24]+0.004*[#   2]+0.004*[#  12]+0.003*[#   7]
          +0.003*[#   8]+0.003*[#  17]+0.003*[#  18]+0.001*[#   3]+0.001*[#   4]
          +0.001*[#  13]+0.001*[#  14]
    |psi|^2 = 0.998
==== e(  10) =    10.87955 eV ==== 
     psi = 0.453*[#  22]+0.211*[#   6]+0.211*[#  16]+0.046*[#   5]+0.046*[#  15]
          +0.008*[#   1]+0.008*[#  11]+0.001*[#   7]+0.001*[#   8]+0.001*[#  17]
          +0.001*[#  18]+0.001*[#   9]+0.001*[#  10]+0.001*[#  19]+0.001*[#  20]
          
    |psi|^2 = 0.999
==== e(  11) =    12.56910 eV ==== 
     psi = 0.165*[#  23]+0.165*[#  24]+0.080*[#   9]+0.080*[#  10]+0.080*[#  19]
          +0.080*[#  20]+0.077*[#  21]+0.042*[#   5]+0.042*[#  15]+0.039*[#   7]
          +0.039*[#   8]+0.039*[#  17]+0.039*[#  18]+0.008*[#   6]+0.008*[#  16]
          +0.005*[#   1]+0.005*[#  11]
    |psi|^2 = 0.994
==== e(  12) =    13.39071 eV ==== 
     psi = 0.224*[#  23]+0.224*[#  24]+0.094*[#   9]+0.094*[#  10]+0.094*[#  19]
          +0.094*[#  20]+0.042*[#   7]+0.042*[#   8]+0.042*[#  17]+0.042*[#  18]
          
    |psi|^2 = 0.999
==== e(  13) =    14.33317 eV ==== 
     psi = 0.196*[#  21]+0.152*[#   5]+0.152*[#  15]+0.053*[#  23]+0.053*[#  24]
          +0.033*[#   9]+0.033*[#  10]+0.033*[#  19]+0.033*[#  20]+0.026*[#   7]
          +0.026*[#   8]+0.026*[#  17]+0.026*[#  18]+0.018*[#   6]+0.018*[#  16]
          +0.004*[#   2]+0.004*[#  12]+0.004*[#   1]+0.004*[#  11]
    |psi|^2 = 0.896
==== e(  14) =    15.75707 eV ==== 
     psi = 0.195*[#   9]+0.195*[#  10]+0.195*[#  19]+0.195*[#  20]+0.047*[#   6]
          +0.047*[#  16]+0.040*[#  22]+0.019*[#   7]+0.019*[#   8]+0.019*[#  17]
          +0.019*[#  18]+0.001*[#   5]+0.001*[#  15]
    |psi|^2 = 0.993
==== e(  15) =    16.24377 eV ==== 
     psi = 0.144*[#   7]+0.144*[#   8]+0.144*[#  17]+0.144*[#  18]+0.118*[#   6]
          +0.118*[#  16]+0.031*[#   9]+0.031*[#  10]+0.031*[#  19]+0.031*[#  20]
          +0.015*[#  21]+0.010*[#   5]+0.010*[#  15]+0.010*[#  23]+0.010*[#  24]
          
    |psi|^2 = 0.990
==== e(  16) =    16.42767 eV ==== 
     psi = 0.177*[#   7]+0.177*[#   8]+0.177*[#  17]+0.177*[#  18]+0.072*[#   9]
          +0.072*[#  10]+0.072*[#  19]+0.072*[#  20]
    |psi|^2 = 0.997
==== e(  17) =    16.60993 eV ==== 
     psi = 0.353*[#   6]+0.353*[#  16]+0.036*[#   7]+0.036*[#   8]+0.036*[#  17]
          +0.036*[#  18]+0.036*[#   9]+0.036*[#  10]+0.036*[#  19]+0.036*[#  20]
          
    |psi|^2 = 0.995
==== e(  18) =    16.64471 eV ==== 
     psi = 0.232*[#   9]+0.232*[#  10]+0.232*[#  19]+0.232*[#  20]+0.017*[#   7]
          +0.017*[#   8]+0.017*[#  17]+0.017*[#  18]
    |psi|^2 = 0.994
==== e(  19) =    17.90232 eV ==== 
     psi = 0.198*[#   7]+0.198*[#   8]+0.198*[#  17]+0.198*[#  18]+0.045*[#   9]
          +0.045*[#  10]+0.045*[#  19]+0.045*[#  20]+0.014*[#  23]+0.014*[#  24]
          
    |psi|^2 = 0.998

 k =  -0.1250000000  0.0721687836 -0.0640405144
==== e(   1) =   -48.08213 eV ==== 
     psi = 0.464*[#   1]+0.464*[#  11]+0.031*[#   5]+0.031*[#  15]+0.005*[#  21]
          +0.002*[#  23]+0.002*[#  24]
    |psi|^2 = 1.000
==== e(   2) =   -47.98387 eV ==== 
     psi = 0.472*[#   1]+0.472*[#  11]+0.029*[#  22]+0.009*[#   5]+0.009*[#  15]
          +0.003*[#   6]+0.003*[#  16]
    |psi|^2 = 1.000
==== e(   3) =   -22.14904 eV ==== 
     psi = 0.487*[#   2]+0.487*[#  12]+0.014*[#  21]+0.001*[#   3]+0.001*[#   4]
          +0.001*[#  13]+0.001*[#  14]+0.001*[#  23]+0.001*[#  24]
    |psi|^2 = 1.000
==== e(   4) =   -21.80879 eV ==== 
     psi = 0.246*[#   3]+0.246*[#   4]+0.246*[#  13]+0.246*[#  14]+0.005*[#   2]
          +0.005*[#  12]+0.002*[#  22]+0.001*[#  23]+0.001*[#  24]
    |psi|^2 = 1.000
==== e(   5) =   -21.77075 eV ==== 
     psi = 0.250*[#   3]+0.250*[#   4]+0.250*[#  13]+0.250*[#  14]
    |psi|^2 = 1.000
==== e(   6) =   -21.72994 eV ==== 
     psi = 0.243*[#   3]+0.243*[#   4]+0.243*[#  13]+0.243*[#  14]+0.010*[#   2]
          +0.010*[#  12]+0.003*[#   5]+0.003*[#  15]
    |psi|^2 = 1.000
==== e(   7) =   -21.68177 eV ==== 
     psi = 0.249*[#   3]+0.249*[#   4]+0.249*[#  13]+0.249*[#  14]+0.002*[#  23]
          +0.002*[#  24]
    |psi|^2 = 1.000
==== e(   8) =   -21.60686 eV ==== 
     psi = 0.486*[#   2]+0.486*[#  12]+0.006*[#   3]+0.006*[#   4]+0.006*[#  13]
          +0.006*[#  14]+0.002*[#  22]
    |psi|^2 = 1.000
==== e(   9) =     3.93278 eV ==== 
     psi = 0.487*[#  21]+0.209*[#   5]+0.209*[#  15]+0.025*[#   1]+0.025*[#  11]
          +0.006*[#  23]+0.006*[#  24]+0.005*[#   2]+0.005*[#  12]+0.004*[#   7]
          +0.004*[#   8]+0.004*[#  17]+0.004*[#  18]+0.001*[#   3]+0.001*[#   4]
          +0.001*[#  13]+0.001*[#  14]
    |psi|^2 = 0.999
==== e(  10) =    10.79163 eV ==== 
     psi = 0.446*[#  22]+0.190*[#   6]+0.190*[#  16]+0.066*[#   5]+0.066*[#  15]
          +0.009*[#   1]+0.009*[#  11]+0.007*[#  21]+0.002*[#   7]+0.002*[#   8]
          +0.002*[#  17]+0.002*[#  18]
    |psi|^2 = 0.999
==== e(  11) =    12.60173 eV ==== 
     psi = 0.174*[#  23]+0.174*[#  24]+0.086*[#   9]+0.086*[#  10]+0.086*[#  19]
          +0.086*[#  20]+0.056*[#  21]+0.037*[#   7]+0.037*[#   8]+0.037*[#  17]
          +0.037*[#  18]+0.032*[#   5]+0.032*[#  15]+0.011*[#   6]+0.011*[#  16]
          +0.004*[#   1]+0.004*[#  11]+0.002*[#  22]
    |psi|^2 = 0.996
==== e(  12) =    13.43942 eV ==== 
     psi = 0.229*[#  23]+0.229*[#  24]+0.097*[#   9]+0.097*[#  10]+0.097*[#  19]
          +0.097*[#  20]+0.038*[#   7]+0.038*[#   8]+0.038*[#  17]+0.038*[#  18]
          
    |psi|^2 = 0.999
==== e(  13) =    14.30366 eV ==== 
     psi = 0.180*[#  21]+0.164*[#   5]+0.164*[#  15]+0.043*[#   6]+0.043*[#  16]
          +0.042*[#  23]+0.042*[#  24]+0.033*[#   7]+0.033*[#   8]+0.033*[#  17]
          +0.033*[#  18]+0.020*[#   9]+0.020*[#  10]+0.020*[#  19]+0.020*[#  20]
          +0.005*[#   2]+0.005*[#  12]+0.005*[#   1]+0.005*[#  11]+0.003*[#  22]
          
    |psi|^2 = 0.914
==== e(  14) =    15.71955 eV ==== 
     psi = 0.176*[#   9]+0.176*[#  10]+0.176*[#  19]+0.176*[#  20]+0.069*[#   6]
          +0.069*[#  16]+0.036*[#  22]+0.025*[#   7]+0.025*[#   8]+0.025*[#  17]
          +0.025*[#  18]+0.006*[#  21]+0.003*[#   5]+0.003*[#  15]
    |psi|^2 = 0.993
==== e(  15) =    16.18378 eV ==== 
     psi = 0.243*[#   6]+0.243*[#  16]+0.072*[#   7]+0.072*[#   8]+0.072*[#  17]
          +0.072*[#  18]+0.049*[#   9]+0.049*[#  10]+0.049*[#  19]+0.049*[#  20]
          +0.004*[#  21]+0.004*[#   5]+0.004*[#  15]+0.004*[#  23]+0.004*[#  24]
          +0.001*[#  22]
    |psi|^2 = 0.992
==== e(  16) =    16.32706 eV ==== 
     psi = 0.195*[#   7]+0.195*[#   8]+0.195*[#  17]+0.195*[#  18]+0.053*[#   9]
          +0.053*[#  10]+0.053*[#  19]+0.053*[#  20]+0.001*[#  23]+0.001*[#  24]
          
    |psi|^2 = 0.995
==== e(  17) =    16.57002 eV ==== 
     psi = 0.229*[#   9]+0.229*[#  10]+0.229*[#  19]+0.229*[#  20]+0.020*[#   7]
          +0.020*[#   8]+0.020*[#  17]+0.020*[#  18]
    |psi|^2 = 0.996
==== e(  18) =    16.81672 eV ==== 
     psi = 0.197*[#   6]+0.197*[#  16]+0.094*[#   7]+0.094*[#   8]+0.094*[#  17]
          +0.094*[#  18]+0.056*[#   9]+0.056*[#  10]+0.056*[#  19]+0.056*[#  20]
          +0.002*[#  22]
    |psi|^2 = 0.996
==== e(  19) =    17.97555 eV ==== 
     psi = 0.179*[#   7]+0.179*[#   8]+0.179*[#  17]+0.179*[#  18]+0.065*[#   9]
          +0.065*[#  10]+0.065*[#  19]+0.065*[#  20]+0.011*[#  23]+0.011*[#  24]
          
    |psi|^2 = 0.998

 k =  -0.1250000000  0.0721687836 -0.1280810288
==== e(   1) =   -48.07488 eV ==== 
     psi = 0.467*[#   1]+0.467*[#  11]+0.026*[#   5]+0.026*[#  15]+0.005*[#  21]
          +0.003*[#  22]+0.002*[#  23]+0.002*[#  24]
    |psi|^2 = 1.000
==== e(   2) =   -47.99122 eV ==== 
     psi = 0.477*[#   1]+0.477*[#  11]+0.027*[#  22]+0.004*[#   5]+0.004*[#  15]
          +0.003*[#   6]+0.003*[#  16]+0.003*[#  21]
    |psi|^2 = 1.000
==== e(   3) =   -22.11427 eV ==== 
     psi = 0.479*[#   2]+0.479*[#  12]+0.013*[#  21]+0.005*[#   3]+0.005*[#   4]
          +0.005*[#  13]+0.005*[#  14]+0.003*[#   5]+0.003*[#  15]
    |psi|^2 = 1.000
==== e(   4) =   -21.80174 eV ==== 
     psi = 0.239*[#   3]+0.239*[#   4]+0.239*[#  13]+0.239*[#  14]+0.019*[#   2]
          +0.019*[#  12]+0.002*[#  23]+0.002*[#  24]+0.001*[#  22]+0.001*[#   5]
          +0.001*[#  15]
    |psi|^2 = 1.000
==== e(   5) =   -21.76281 eV ==== 
     psi = 0.250*[#   3]+0.250*[#   4]+0.250*[#  13]+0.250*[#  14]
    |psi|^2 = 1.000
==== e(   6) =   -21.74478 eV ==== 
     psi = 0.220*[#   3]+0.220*[#   4]+0.220*[#  13]+0.220*[#  14]+0.056*[#   2]
          +0.056*[#  12]+0.004*[#   5]+0.004*[#  15]
    |psi|^2 = 1.000
==== e(   7) =   -21.68979 eV ==== 
     psi = 0.249*[#   3]+0.249*[#   4]+0.249*[#  13]+0.249*[#  14]+0.002*[#  23]
          +0.002*[#  24]
    |psi|^2 = 1.000
==== e(   8) =   -21.63601 eV ==== 
     psi = 0.431*[#   2]+0.431*[#  12]+0.033*[#   3]+0.033*[#   4]+0.033*[#  13]
          +0.033*[#  14]+0.002*[#  22]
    |psi|^2 = 1.000
==== e(   9) =     4.00219 eV ==== 
     psi = 0.492*[#  21]+0.207*[#   5]+0.207*[#  15]+0.022*[#   1]+0.022*[#  11]
          +0.007*[#   2]+0.007*[#  12]+0.006*[#  23]+0.006*[#  24]+0.004*[#   7]
          +0.004*[#   8]+0.004*[#  17]+0.004*[#  18]+0.001*[#   3]+0.001*[#   4]
          +0.001*[#  13]+0.001*[#  14]
    |psi|^2 = 0.999
==== e(  10) =    10.57171 eV ==== 
     psi = 0.432*[#  22]+0.143*[#   6]+0.143*[#  16]+0.111*[#   5]+0.111*[#  15]
          +0.016*[#  21]+0.012*[#   1]+0.012*[#  11]+0.002*[#   7]+0.002*[#   8]
          +0.002*[#  17]+0.002*[#  18]
    |psi|^2 = 0.998
==== e(  11) =    12.65715 eV ==== 
     psi = 0.191*[#  23]+0.191*[#  24]+0.092*[#   9]+0.092*[#  10]+0.092*[#  19]
          +0.092*[#  20]+0.037*[#   7]+0.037*[#   8]+0.037*[#  17]+0.037*[#  18]
          +0.029*[#  21]+0.018*[#   5]+0.018*[#  15]+0.011*[#   6]+0.011*[#  16]
          +0.004*[#  22]+0.003*[#   1]+0.003*[#  11]
    |psi|^2 = 0.998
==== e(  12) =    13.42867 eV ==== 
     psi = 0.228*[#  23]+0.228*[#  24]+0.097*[#   9]+0.097*[#  10]+0.097*[#  19]
          +0.097*[#  20]+0.038*[#   7]+0.038*[#   8]+0.038*[#  17]+0.038*[#  18]
          
    |psi|^2 = 0.999
==== e(  13) =    14.34050 eV ==== 
     psi = 0.163*[#   5]+0.163*[#  15]+0.122*[#  21]+0.116*[#   6]+0.116*[#  16]
          +0.039*[#   7]+0.039*[#   8]+0.039*[#  17]+0.039*[#  18]+0.024*[#  23]
          +0.024*[#  24]+0.011*[#  22]+0.008*[#   9]+0.008*[#  10]+0.008*[#  19]
          +0.008*[#  20]+0.005*[#   2]+0.005*[#  12]+0.004*[#   1]+0.004*[#  11]
          
    |psi|^2 = 0.947
==== e(  14) =    15.63858 eV ==== 
     psi = 0.140*[#   9]+0.140*[#  10]+0.140*[#  19]+0.140*[#  20]+0.129*[#   6]
          +0.129*[#  16]+0.034*[#  22]+0.024*[#   7]+0.024*[#   8]+0.024*[#  17]
          +0.024*[#  18]+0.015*[#   5]+0.015*[#  15]+0.011*[#  21]
    |psi|^2 = 0.993
==== e(  15) =    16.06699 eV ==== 
     psi = 0.247*[#   6]+0.247*[#  16]+0.087*[#   9]+0.087*[#  10]+0.087*[#  19]
          +0.087*[#  20]+0.037*[#   7]+0.037*[#   8]+0.037*[#  17]+0.037*[#  18]
          
    |psi|^2 = 0.990
==== e(  16) =    16.22208 eV ==== 
     psi = 0.131*[#   7]+0.131*[#   8]+0.131*[#  17]+0.131*[#  18]+0.117*[#   9]
          +0.117*[#  10]+0.117*[#  19]+0.117*[#  20]+0.002*[#  23]+0.002*[#  24]
          
    |psi|^2 = 0.994
==== e(  17) =    16.63762 eV ==== 
     psi = 0.149*[#   9]+0.149*[#  10]+0.149*[#  19]+0.149*[#  20]+0.100*[#   7]
          +0.100*[#   8]+0.100*[#  17]+0.100*[#  18]+0.001*[#  23]+0.001*[#  24]
          
    |psi|^2 = 0.997
==== e(  18) =    17.06606 eV ==== 
     psi = 0.124*[#   7]+0.124*[#   8]+0.124*[#  17]+0.124*[#  18]+0.101*[#   6]
          +0.101*[#  16]+0.073*[#   9]+0.073*[#  10]+0.073*[#  19]+0.073*[#  20]
          +0.004*[#  22]
    |psi|^2 = 0.996
==== e(  19) =    18.05638 eV ==== 
     psi = 0.157*[#   7]+0.157*[#   8]+0.157*[#  17]+0.157*[#  18]+0.084*[#   6]
          +0.084*[#  16]+0.040*[#  22]+0.025*[#  23]+0.025*[#  24]+0.021*[#  21]
          +0.019*[#   5]+0.019*[#  15]+0.011*[#   9]+0.011*[#  10]+0.011*[#  19]
          +0.011*[#  20]
    |psi|^2 = 0.990

 k =  -0.1250000000  0.0721687836 -0.1921215432
==== e(   1) =   -48.06361 eV ==== 
     psi = 0.472*[#   1]+0.472*[#  11]+0.020*[#   5]+0.020*[#  15]+0.008*[#  22]
          +0.005*[#  21]+0.002*[#  23]+0.002*[#  24]
    |psi|^2 = 1.000
==== e(   2) =   -48.00262 eV ==== 
     psi = 0.481*[#   1]+0.481*[#  11]+0.025*[#  22]+0.005*[#  21]+0.002*[#   6]
          +0.002*[#  16]+0.001*[#  23]+0.001*[#  24]
    |psi|^2 = 1.000
==== e(   3) =   -22.06013 eV ==== 
     psi = 0.465*[#   2]+0.465*[#  12]+0.011*[#   3]+0.011*[#   4]+0.011*[#  13]
          +0.011*[#  14]+0.010*[#  21]+0.006*[#   5]+0.006*[#  15]
    |psi|^2 = 1.000
==== e(   4) =   -21.79833 eV ==== 
     psi = 0.187*[#   3]+0.187*[#   4]+0.187*[#  13]+0.187*[#  14]+0.119*[#   2]
          +0.119*[#  12]+0.004*[#   5]+0.004*[#  15]
    |psi|^2 = 1.000
==== e(   5) =   -21.76791 eV ==== 
     psi = 0.203*[#   3]+0.203*[#   4]+0.203*[#  13]+0.203*[#  14]+0.089*[#   2]
          +0.089*[#  12]+0.002*[#   5]+0.002*[#  15]
    |psi|^2 = 1.000
==== e(   6) =   -21.75142 eV ==== 
     psi = 0.250*[#   3]+0.250*[#   4]+0.250*[#  13]+0.250*[#  14]
    |psi|^2 = 1.000
==== e(   7) =   -21.70124 eV ==== 
     psi = 0.249*[#   3]+0.249*[#   4]+0.249*[#  13]+0.249*[#  14]+0.002*[#  23]
          +0.002*[#  24]
    |psi|^2 = 1.000
==== e(   8) =   -21.67314 eV ==== 
     psi = 0.309*[#   2]+0.309*[#  12]+0.094*[#   3]+0.094*[#   4]+0.094*[#  13]
          +0.094*[#  14]+0.003*[#  22]
    |psi|^2 = 1.000
==== e(   9) =     4.09304 eV ==== 
     psi = 0.500*[#  21]+0.203*[#   5]+0.203*[#  15]+0.018*[#   1]+0.018*[#  11]
          +0.009*[#   2]+0.009*[#  12]+0.005*[#  23]+0.005*[#  24]+0.005*[#   7]
          +0.005*[#   8]+0.005*[#  17]+0.005*[#  18]
    |psi|^2 = 0.999
==== e(  10) =    10.31348 eV ==== 
     psi = 0.419*[#  22]+0.160*[#   5]+0.160*[#  15]+0.098*[#   6]+0.098*[#  16]
          +0.015*[#   1]+0.015*[#  11]+0.013*[#  21]+0.002*[#   7]+0.002*[#   8]
          +0.002*[#  17]+0.002*[#  18]+0.001*[#   2]+0.001*[#  12]+0.001*[#   3]
          +0.001*[#   4]+0.001*[#   9]+0.001*[#  10]+0.001*[#  13]+0.001*[#  14]
          +0.001*[#  19]+0.001*[#  20]
    |psi|^2 = 0.999
==== e(  11) =    12.70375 eV ==== 
     psi = 0.204*[#  23]+0.204*[#  24]+0.096*[#   9]+0.096*[#  10]+0.096*[#  19]
          +0.096*[#  20]+0.039*[#   7]+0.039*[#   8]+0.039*[#  17]+0.039*[#  18]
          +0.014*[#  21]+0.010*[#   5]+0.010*[#  15]+0.004*[#   6]+0.004*[#  16]
          +0.001*[#   1]+0.001*[#  11]+0.001*[#  22]
    |psi|^2 = 0.999
==== e(  12) =    13.36533 eV ==== 
     psi = 0.223*[#  23]+0.223*[#  24]+0.096*[#   9]+0.096*[#  10]+0.096*[#  19]
          +0.096*[#  20]+0.042*[#   7]+0.042*[#   8]+0.042*[#  17]+0.042*[#  18]
          
    |psi|^2 = 0.999
==== e(  13) =    14.47252 eV ==== 
     psi = 0.196*[#   6]+0.196*[#  16]+0.142*[#   5]+0.142*[#  15]+0.063*[#  21]
          +0.042*[#   7]+0.042*[#   8]+0.042*[#  17]+0.042*[#  18]+0.021*[#  22]
          +0.010*[#  23]+0.010*[#  24]+0.004*[#   2]+0.004*[#  12]+0.003*[#   1]
          +0.003*[#  11]+0.001*[#   9]+0.001*[#  10]+0.001*[#  19]+0.001*[#  20]
          
    |psi|^2 = 0.971
==== e(  14) =    15.53453 eV ==== 
     psi = 0.232*[#   6]+0.232*[#  16]+0.086*[#   9]+0.086*[#  10]+0.086*[#  19]
          +0.086*[#  20]+0.033*[#  22]+0.031*[#   5]+0.031*[#  15]+0.020*[#   7]
          +0.020*[#   8]+0.020*[#  17]+0.020*[#  18]+0.006*[#  21]+0.001*[#   2]
          +0.001*[#  12]
    |psi|^2 = 0.994
==== e(  15) =    15.85920 eV ==== 
     psi = 0.163*[#   6]+0.163*[#  16]+0.140*[#   9]+0.140*[#  10]+0.140*[#  19]
          +0.140*[#  20]+0.024*[#   7]+0.024*[#   8]+0.024*[#  17]+0.024*[#  18]
          +0.002*[#  21]
    |psi|^2 = 0.989
==== e(  16) =    16.12467 eV ==== 
     psi = 0.156*[#   9]+0.156*[#  10]+0.156*[#  19]+0.156*[#  20]+0.092*[#   7]
          +0.092*[#   8]+0.092*[#  17]+0.092*[#  18]+0.001*[#  23]+0.001*[#  24]
          
    |psi|^2 = 0.994
==== e(  17) =    16.87723 eV ==== 
     psi = 0.145*[#   7]+0.145*[#   8]+0.145*[#  17]+0.145*[#  18]+0.101*[#   9]
          +0.101*[#  10]+0.101*[#  19]+0.101*[#  20]+0.005*[#  23]+0.005*[#  24]
          
    |psi|^2 = 0.997
==== e(  18) =    17.34440 eV ==== 
     psi = 0.136*[#   7]+0.136*[#   8]+0.136*[#  17]+0.136*[#  18]+0.082*[#   9]
          +0.082*[#  10]+0.082*[#  19]+0.082*[#  20]+0.056*[#   6]+0.056*[#  16]
          +0.003*[#  22]+0.002*[#  23]+0.002*[#  24]+0.002*[#   5]+0.002*[#  15]
          
    |psi|^2 = 0.996
==== e(  19) =    18.06276 eV ==== 
     psi = 0.163*[#   7]+0.163*[#   8]+0.163*[#  17]+0.163*[#  18]+0.107*[#   6]
          +0.107*[#  16]+0.037*[#  22]+0.015*[#   5]+0.015*[#  15]+0.012*[#  21]
          +0.009*[#  23]+0.009*[#  24]+0.007*[#   9]+0.007*[#  10]+0.007*[#  19]
          +0.007*[#  20]
    |psi|^2 = 0.994

 k =  -0.1250000000  0.0721687836 -0.2561620576
==== e(   1) =   -48.04948 eV ==== 
     psi = 0.476*[#   1]+0.476*[#  11]+0.015*[#  22]+0.012*[#   5]+0.012*[#  15]
          +0.005*[#  21]+0.001*[#  23]+0.001*[#  24]
    |psi|^2 = 1.000
==== e(   2) =   -48.01685 eV ==== 
     psi = 0.483*[#   1]+0.483*[#  11]+0.019*[#  22]+0.007*[#  21]+0.002*[#  23]
          +0.002*[#  24]+0.001*[#   6]+0.001*[#  16]
    |psi|^2 = 1.000
==== e(   3) =   -21.99265 eV ==== 
     psi = 0.438*[#   2]+0.438*[#  12]+0.024*[#   3]+0.024*[#   4]+0.024*[#  13]
          +0.024*[#  14]+0.009*[#   5]+0.009*[#  15]+0.008*[#  21]
    |psi|^2 = 1.000
==== e(   4) =   -21.84211 eV ==== 
     psi = 0.320*[#   2]+0.320*[#  12]+0.085*[#   3]+0.085*[#   4]+0.085*[#  13]
          +0.085*[#  14]+0.009*[#   5]+0.009*[#  15]+0.002*[#  21]
    |psi|^2 = 1.000
==== e(   5) =   -21.75999 eV ==== 
     psi = 0.223*[#   3]+0.223*[#   4]+0.223*[#  13]+0.223*[#  14]+0.051*[#   2]
          +0.051*[#  12]+0.002*[#  23]+0.002*[#  24]+0.001*[#  22]
    |psi|^2 = 1.000
==== e(   6) =   -21.73812 eV ==== 
     psi = 0.250*[#   3]+0.250*[#   4]+0.250*[#  13]+0.250*[#  14]
    |psi|^2 = 1.000
==== e(   7) =   -21.71458 eV ==== 
     psi = 0.249*[#   3]+0.249*[#   4]+0.249*[#  13]+0.249*[#  14]+0.002*[#  23]
          +0.002*[#  24]
    |psi|^2 = 1.000
==== e(   8) =   -21.70697 eV ==== 
     psi = 0.169*[#   2]+0.169*[#  12]+0.164*[#   3]+0.164*[#   4]+0.164*[#  13]
          +0.164*[#  14]+0.003*[#  22]
    |psi|^2 = 1.000
==== e(   9) =     4.17114 eV ==== 
     psi = 0.509*[#  21]+0.199*[#   5]+0.199*[#  15]+0.014*[#   1]+0.014*[#  11]
          +0.011*[#   2]+0.011*[#  12]+0.005*[#  23]+0.005*[#  24]+0.005*[#   7]
          +0.005*[#   8]+0.005*[#  17]+0.005*[#  18]+0.001*[#   6]+0.001*[#   9]
          +0.001*[#  10]+0.001*[#  16]+0.001*[#  19]+0.001*[#  20]
    |psi|^2 = 0.999
==== e(  10) =    10.10888 eV ==== 
     psi = 0.409*[#  22]+0.196*[#   5]+0.196*[#  15]+0.069*[#   6]+0.069*[#  16]
          +0.018*[#   1]+0.018*[#  11]+0.004*[#  21]+0.002*[#   2]+0.002*[#  12]
          +0.002*[#   9]+0.002*[#  10]+0.002*[#  19]+0.002*[#  20]+0.001*[#   3]
          +0.001*[#   4]+0.001*[#  13]+0.001*[#  14]
    |psi|^2 = 0.999
==== e(  11) =    12.73893 eV ==== 
     psi = 0.212*[#  23]+0.212*[#  24]+0.096*[#   9]+0.096*[#  10]+0.096*[#  19]
          +0.096*[#  20]+0.040*[#   7]+0.040*[#   8]+0.040*[#  17]+0.040*[#  18]
          +0.009*[#  21]+0.008*[#   5]+0.008*[#  15]
    |psi|^2 = 0.999
==== e(  12) =    13.28000 eV ==== 
     psi = 0.217*[#  23]+0.217*[#  24]+0.093*[#   9]+0.093*[#  10]+0.093*[#  19]
          +0.093*[#  20]+0.048*[#   7]+0.048*[#   8]+0.048*[#  17]+0.048*[#  18]
          
    |psi|^2 = 0.999
==== e(  13) =    14.68791 eV ==== 
     psi = 0.249*[#   6]+0.249*[#  16]+0.115*[#   5]+0.115*[#  15]+0.046*[#   7]
          +0.046*[#   8]+0.046*[#  17]+0.046*[#  18]+0.030*[#  22]+0.023*[#  21]
          +0.004*[#   2]+0.004*[#  12]+0.003*[#  23]+0.003*[#  24]+0.001*[#   1]
          +0.001*[#  11]
    |psi|^2 = 0.984
==== e(  14) =    15.36949 eV ==== 
     psi = 0.375*[#   6]+0.375*[#  16]+0.039*[#   5]+0.039*[#  15]+0.025*[#  22]
          +0.021*[#   7]+0.021*[#   8]+0.021*[#  17]+0.021*[#  18]+0.012*[#   9]
          +0.012*[#  10]+0.012*[#  19]+0.012*[#  20]+0.001*[#   2]+0.001*[#  12]
          +0.001*[#  23]+0.001*[#  24]
    |psi|^2 = 0.991
==== e(  15) =    15.66623 eV ==== 
     psi = 0.212*[#   9]+0.212*[#  10]+0.212*[#  19]+0.212*[#  20]+0.022*[#   6]
          +0.022*[#  16]+0.017*[#   7]+0.017*[#   8]+0.017*[#  17]+0.017*[#  18]
          +0.010*[#   5]+0.010*[#  15]+0.007*[#  22]+0.003*[#  21]
    |psi|^2 = 0.991
==== e(  16) =    16.08150 eV ==== 
     psi = 0.176*[#   9]+0.176*[#  10]+0.176*[#  19]+0.176*[#  20]+0.072*[#   7]
          +0.072*[#   8]+0.072*[#  17]+0.072*[#  18]
    |psi|^2 = 0.994
==== e(  17) =    17.21087 eV ==== 
     psi = 0.165*[#   7]+0.165*[#   8]+0.165*[#  17]+0.165*[#  18]+0.081*[#   9]
          +0.081*[#  10]+0.081*[#  19]+0.081*[#  20]+0.006*[#  23]+0.006*[#  24]
          
    |psi|^2 = 0.996
==== e(  18) =    17.61245 eV ==== 
     psi = 0.139*[#   7]+0.139*[#   8]+0.139*[#  17]+0.139*[#  18]+0.084*[#   9]
          +0.084*[#  10]+0.084*[#  19]+0.084*[#  20]+0.043*[#   6]+0.043*[#  16]
          +0.004*[#   5]+0.004*[#  15]+0.004*[#  23]+0.004*[#  24]+0.002*[#  21]
          
    |psi|^2 = 0.996
==== e(  19) =    17.98356 eV ==== 
     psi = 0.167*[#   7]+0.167*[#   8]+0.167*[#  17]+0.167*[#  18]+0.110*[#   6]
          +0.110*[#  16]+0.025*[#  22]+0.013*[#   5]+0.013*[#  15]+0.011*[#   9]
          +0.011*[#  10]+0.011*[#  19]+0.011*[#  20]+0.008*[#  21]
    |psi|^2 = 0.995

 k =  -0.1250000000  0.0721687836  0.3202025720
==== e(   1) =   -48.03677 eV ==== 
     psi = 0.477*[#   1]+0.477*[#  11]+0.033*[#  22]+0.005*[#   5]+0.005*[#  15]
          
    |psi|^2 = 1.000
==== e(   2) =   -48.02960 eV ==== 
     psi = 0.485*[#   1]+0.485*[#  11]+0.012*[#  21]+0.004*[#   5]+0.004*[#  15]
          +0.003*[#  23]+0.003*[#  24]
    |psi|^2 = 1.000
==== e(   3) =   -21.92926 eV ==== 
     psi = 0.385*[#   2]+0.385*[#  12]+0.050*[#   3]+0.050*[#   4]+0.050*[#  13]
          +0.050*[#  14]+0.009*[#   5]+0.009*[#  15]+0.009*[#  21]
    |psi|^2 = 1.000
==== e(   4) =   -21.90186 eV ==== 
     psi = 0.415*[#   2]+0.415*[#  12]+0.037*[#   3]+0.037*[#   4]+0.037*[#  13]
          +0.037*[#  14]+0.010*[#   5]+0.010*[#  15]
    |psi|^2 = 1.000
==== e(   5) =   -21.73692 eV ==== 
     psi = 0.206*[#   3]+0.206*[#   4]+0.206*[#  13]+0.206*[#  14]+0.085*[#   2]
          +0.085*[#  12]+0.002*[#  22]+0.002*[#  23]+0.002*[#  24]
    |psi|^2 = 1.000
==== e(   6) =   -21.73454 eV ==== 
     psi = 0.203*[#   3]+0.203*[#   4]+0.203*[#  13]+0.203*[#  14]+0.093*[#   2]
          +0.093*[#  12]+0.001*[#  22]
    |psi|^2 = 1.000
==== e(   7) =   -21.73319 eV ==== 
     psi = 0.249*[#   3]+0.249*[#   4]+0.249*[#  13]+0.249*[#  14]+0.002*[#  23]
          +0.002*[#  24]
    |psi|^2 = 1.000
==== e(   8) =   -21.71950 eV ==== 
     psi = 0.250*[#   3]+0.250*[#   4]+0.250*[#  13]+0.250*[#  14]
    |psi|^2 = 1.000
==== e(   9) =     4.20339 eV ==== 
     psi = 0.512*[#  21]+0.198*[#   5]+0.198*[#  15]+0.012*[#   1]+0.012*[#  11]
          +0.012*[#   2]+0.012*[#  12]+0.006*[#  23]+0.006*[#  24]+0.005*[#   7]
          +0.005*[#   8]+0.005*[#  17]+0.005*[#  18]+0.001*[#   6]+0.001*[#  16]
          +0.001*[#   9]+0.001*[#  10]+0.001*[#  19]+0.001*[#  20]
    |psi|^2 = 0.999
==== e(  10) =    10.02723 eV ==== 
     psi = 0.404*[#  22]+0.210*[#   5]+0.210*[#  15]+0.059*[#   6]+0.059*[#  16]
          +0.020*[#   1]+0.020*[#  11]+0.002*[#   9]+0.002*[#  10]+0.002*[#  19]
          +0.002*[#  20]+0.002*[#   2]+0.002*[#  12]+0.001*[#   3]+0.001*[#   4]
          +0.001*[#  13]+0.001*[#  14]
    |psi|^2 = 0.999
==== e(  11) =    12.76349 eV ==== 
     psi = 0.213*[#  23]+0.213*[#  24]+0.095*[#   9]+0.095*[#  10]+0.095*[#  19]
          +0.095*[#  20]+0.039*[#   7]+0.039*[#   8]+0.039*[#  17]+0.039*[#  18]
          +0.008*[#  21]+0.007*[#   5]+0.007*[#  15]+0.003*[#   6]+0.003*[#  16]
          +0.003*[#  22]
    |psi|^2 = 0.999
==== e(  12) =    13.20574 eV ==== 
     psi = 0.212*[#  23]+0.212*[#  24]+0.090*[#   9]+0.090*[#  10]+0.090*[#  19]
          +0.090*[#  20]+0.053*[#   7]+0.053*[#   8]+0.053*[#  17]+0.053*[#  18]
          
    |psi|^2 = 0.999
==== e(  13) =    14.93999 eV ==== 
     psi = 0.223*[#   6]+0.223*[#  16]+0.116*[#   5]+0.116*[#  15]+0.060*[#   7]
          +0.060*[#   8]+0.060*[#  17]+0.060*[#  18]+0.045*[#  22]+0.005*[#   9]
          +0.005*[#  10]+0.005*[#  19]+0.005*[#  20]+0.004*[#   2]+0.004*[#  12]
          +0.002*[#  21]
    |psi|^2 = 0.991
==== e(  14) =    15.12189 eV ==== 
     psi = 0.424*[#   6]+0.424*[#  16]+0.020*[#   5]+0.020*[#  15]+0.013*[#   7]
          +0.013*[#   8]+0.013*[#  17]+0.013*[#  18]+0.007*[#  21]+0.005*[#  22]
          +0.005*[#   9]+0.005*[#  10]+0.005*[#  19]+0.005*[#  20]+0.005*[#  23]
          +0.005*[#  24]
    |psi|^2 = 0.986
==== e(  15) =    15.60464 eV ==== 
     psi = 0.215*[#   9]+0.215*[#  10]+0.215*[#  19]+0.215*[#  20]+0.025*[#   5]
          +0.025*[#  15]+0.015*[#   7]+0.015*[#   8]+0.015*[#  17]+0.015*[#  18]
          +0.013*[#  22]+0.005*[#   6]+0.005*[#  16]
    |psi|^2 = 0.992
==== e(  16) =    16.10723 eV ==== 
     psi = 0.190*[#   9]+0.190*[#  10]+0.190*[#  19]+0.190*[#  20]+0.058*[#   7]
          +0.058*[#   8]+0.058*[#  17]+0.058*[#  18]
    |psi|^2 = 0.994
==== e(  17) =    17.52688 eV ==== 
     psi = 0.170*[#   7]+0.170*[#   8]+0.170*[#  17]+0.170*[#  18]+0.077*[#   9]
          +0.077*[#  10]+0.077*[#  19]+0.077*[#  20]+0.004*[#  23]+0.004*[#  24]
          
    |psi|^2 = 0.995
==== e(  18) =    17.71310 eV ==== 
     psi = 0.135*[#   6]+0.135*[#  16]+0.132*[#   7]+0.132*[#   8]+0.132*[#  17]
          +0.132*[#  18]+0.034*[#   9]+0.034*[#  10]+0.034*[#  19]+0.034*[#  20]
          +0.017*[#   5]+0.017*[#  15]+0.009*[#  22]+0.006*[#  23]+0.006*[#  24]
          
    |psi|^2 = 0.994
==== e(  19) =    17.87998 eV ==== 
     psi = 0.170*[#   7]+0.170*[#   8]+0.170*[#  17]+0.170*[#  18]+0.065*[#   9]
          +0.065*[#  10]+0.065*[#  19]+0.065*[#  20]+0.019*[#   6]+0.019*[#  16]
          +0.008*[#  21]+0.004*[#  22]+0.003*[#  23]+0.003*[#  24]
    |psi|^2 = 0.999

 k =  -0.1875000000  0.1082531755  0.0000000000
==== e(   1) =   -48.07173 eV ==== 
     psi = 0.469*[#   1]+0.469*[#  11]+0.023*[#   5]+0.023*[#  15]+0.005*[#  23]
          +0.005*[#  24]+0.005*[#  21]
    |psi|^2 = 1.000
==== e(   2) =   -47.97738 eV ==== 
     psi = 0.472*[#   1]+0.472*[#  11]+0.024*[#  22]+0.013*[#   5]+0.013*[#  15]
          +0.003*[#   6]+0.003*[#  16]
    |psi|^2 = 1.000
==== e(   3) =   -22.12706 eV ==== 
     psi = 0.489*[#   2]+0.489*[#  12]+0.012*[#  21]+0.003*[#  23]+0.003*[#  24]
          
    |psi|^2 = 1.000
==== e(   4) =   -21.87243 eV ==== 
     psi = 0.246*[#   3]+0.246*[#   4]+0.246*[#  13]+0.246*[#  14]+0.003*[#  22]
          +0.002*[#  23]+0.002*[#  24]+0.002*[#   5]+0.002*[#  15]+0.001*[#   2]
          +0.001*[#  12]
    |psi|^2 = 1.000
==== e(   5) =   -21.79553 eV ==== 
     psi = 0.249*[#   3]+0.249*[#   4]+0.249*[#  13]+0.249*[#  14]+0.002*[#  23]
          +0.002*[#  24]
    |psi|^2 = 1.000
==== e(   6) =   -21.78554 eV ==== 
     psi = 0.246*[#   3]+0.246*[#   4]+0.246*[#  13]+0.246*[#  14]+0.005*[#   5]
          +0.005*[#  15]+0.002*[#  22]+0.001*[#   2]+0.001*[#  12]
    |psi|^2 = 1.000
==== e(   7) =   -21.68458 eV ==== 
     psi = 0.250*[#   3]+0.250*[#   4]+0.250*[#  13]+0.250*[#  14]
    |psi|^2 = 1.000
==== e(   8) =   -21.61044 eV ==== 
     psi = 0.497*[#   2]+0.497*[#  12]+0.002*[#  22]
    |psi|^2 = 1.000
==== e(   9) =     4.20627 eV ==== 
     psi = 0.505*[#  21]+0.186*[#   5]+0.186*[#  15]+0.021*[#   1]+0.021*[#  11]
          +0.011*[#  23]+0.011*[#  24]+0.008*[#   7]+0.008*[#   8]+0.008*[#  17]
          +0.008*[#  18]+0.004*[#   2]+0.004*[#  12]+0.003*[#   3]+0.003*[#   4]
          +0.003*[#  13]+0.003*[#  14]+0.002*[#   9]+0.002*[#  10]+0.002*[#  19]
          +0.002*[#  20]
    |psi|^2 = 0.999
==== e(  10) =    11.23810 eV ==== 
     psi = 0.471*[#  22]+0.196*[#   6]+0.196*[#  16]+0.041*[#   5]+0.041*[#  15]
          +0.006*[#   1]+0.006*[#  11]+0.005*[#   9]+0.005*[#  10]+0.005*[#  19]
          +0.005*[#  20]+0.003*[#   7]+0.003*[#   8]+0.003*[#  17]+0.003*[#  18]
          +0.002*[#   3]+0.002*[#   4]+0.002*[#  13]+0.002*[#  14]
    |psi|^2 = 0.998
==== e(  11) =    11.98299 eV ==== 
     psi = 0.174*[#  23]+0.174*[#  24]+0.070*[#  21]+0.069*[#   9]+0.069*[#  10]
          +0.069*[#  19]+0.069*[#  20]+0.045*[#   5]+0.045*[#  15]+0.042*[#   7]
          +0.042*[#   8]+0.042*[#  17]+0.042*[#  18]+0.014*[#   6]+0.014*[#  16]
          +0.007*[#   1]+0.007*[#  11]+0.001*[#  22]
    |psi|^2 = 0.997
==== e(  12) =    13.35159 eV ==== 
     psi = 0.231*[#  23]+0.231*[#  24]+0.067*[#   9]+0.067*[#  10]+0.067*[#  19]
          +0.067*[#  20]+0.066*[#   7]+0.066*[#   8]+0.066*[#  17]+0.066*[#  18]
          
    |psi|^2 = 0.998
==== e(  13) =    14.30170 eV ==== 
     psi = 0.132*[#   5]+0.132*[#  15]+0.100*[#  21]+0.059*[#   7]+0.059*[#   8]
[...]
    |psi|^2 = 0.993
==== e(  12) =    12.65824 eV ==== 
     psi = 0.559*[#  22]+0.085*[#   9]+0.085*[#  10]+0.085*[#  19]+0.085*[#  20]
          +0.016*[#   7]+0.016*[#   8]+0.016*[#  17]+0.016*[#  18]+0.004*[#   6]
          +0.004*[#  16]+0.004*[#   5]+0.004*[#  15]+0.003*[#   3]+0.003*[#   4]
          +0.003*[#  13]+0.003*[#  14]
    |psi|^2 = 0.996
==== e(  13) =    14.26095 eV ==== 
     psi = 0.156*[#   7]+0.156*[#   8]+0.156*[#  17]+0.156*[#  18]+0.072*[#   9]
          +0.072*[#  10]+0.072*[#  19]+0.072*[#  20]+0.012*[#   5]+0.012*[#  15]
          +0.008*[#  22]+0.007*[#  21]+0.005*[#   6]+0.005*[#  16]+0.004*[#  23]
          +0.004*[#  24]
    |psi|^2 = 0.971
==== e(  14) =    14.68113 eV ==== 
     psi = 0.153*[#   6]+0.153*[#  16]+0.107*[#   9]+0.107*[#  10]+0.107*[#  19]
          +0.107*[#  20]+0.048*[#   7]+0.048*[#   8]+0.048*[#  17]+0.048*[#  18]
          +0.009*[#   5]+0.009*[#  15]+0.006*[#  22]+0.006*[#  23]+0.006*[#  24]
          
    |psi|^2 = 0.968
==== e(  15) =    15.11114 eV ==== 
     psi = 0.108*[#   7]+0.108*[#   8]+0.108*[#  17]+0.108*[#  18]+0.077*[#   9]
          +0.077*[#  10]+0.077*[#  19]+0.077*[#  20]+0.061*[#   6]+0.061*[#  16]
          +0.043*[#   5]+0.043*[#  15]+0.012*[#  23]+0.012*[#  24]+0.006*[#  22]
          +0.002*[#   2]+0.002*[#  12]+0.002*[#  21]
    |psi|^2 = 0.984
==== e(  16) =    17.91165 eV ==== 
     psi = 0.280*[#   6]+0.280*[#  16]+0.092*[#   9]+0.092*[#  10]+0.092*[#  19]
          +0.092*[#  20]+0.013*[#  23]+0.013*[#  24]+0.009*[#   7]+0.009*[#   8]
          +0.009*[#  17]+0.009*[#  18]+0.002*[#  22]+0.002*[#   5]+0.002*[#  15]
          
    |psi|^2 = 0.996
==== e(  17) =    18.01674 eV ==== 
     psi = 0.141*[#   7]+0.141*[#   8]+0.141*[#  17]+0.141*[#  18]+0.070*[#   9]
          +0.070*[#  10]+0.070*[#  19]+0.070*[#  20]+0.063*[#   6]+0.063*[#  16]
          +0.010*[#  23]+0.010*[#  24]+0.004*[#  22]+0.001*[#  21]
    |psi|^2 = 0.996
==== e(  18) =    18.23392 eV ==== 
     psi = 0.119*[#   9]+0.119*[#  10]+0.119*[#  19]+0.119*[#  20]+0.085*[#   7]
          +0.085*[#   8]+0.085*[#  17]+0.085*[#  18]+0.051*[#   6]+0.051*[#  16]
          +0.027*[#  23]+0.027*[#  24]+0.010*[#   5]+0.010*[#  15]+0.002*[#  21]
          +0.002*[#  22]
    |psi|^2 = 0.996
==== e(  19) =    18.97528 eV ==== 
     psi = 0.109*[#   6]+0.109*[#  16]+0.080*[#   9]+0.080*[#  10]+0.080*[#  19]
          +0.080*[#  20]+0.059*[#  23]+0.059*[#  24]+0.056*[#   7]+0.056*[#   8]
          +0.056*[#  17]+0.056*[#  18]+0.046*[#   5]+0.046*[#  15]+0.019*[#  21]
          
    |psi|^2 = 0.995

 k =   0.5625000000  0.0360843918  0.1280810288
==== e(   1) =   -47.99378 eV ==== 
     psi = 0.479*[#   1]+0.479*[#  11]+0.011*[#  23]+0.011*[#  24]+0.007*[#   5]
          +0.007*[#  15]
    |psi|^2 = 1.000
==== e(   2) =   -47.97525 eV ==== 
     psi = 0.478*[#   1]+0.478*[#  11]+0.015*[#   5]+0.015*[#  15]+0.005*[#  23]
          +0.005*[#  24]
    |psi|^2 = 1.000
==== e(   3) =   -22.08488 eV ==== 
     psi = 0.228*[#   3]+0.228*[#   4]+0.228*[#  13]+0.228*[#  14]+0.032*[#   2]
          +0.032*[#  12]+0.010*[#  21]+0.002*[#  22]+0.002*[#  23]+0.002*[#  24]
          +0.002*[#   5]+0.002*[#  15]
    |psi|^2 = 1.000
==== e(   4) =   -22.04423 eV ==== 
     psi = 0.191*[#   3]+0.191*[#   4]+0.191*[#  13]+0.191*[#  14]+0.107*[#   2]
          +0.107*[#  12]+0.006*[#  23]+0.006*[#  24]+0.003*[#  21]+0.003*[#  22]
          
    |psi|^2 = 1.000
==== e(   5) =   -21.96079 eV ==== 
     psi = 0.206*[#   3]+0.206*[#   4]+0.206*[#  13]+0.206*[#  14]+0.080*[#   2]
          +0.080*[#  12]+0.004*[#  23]+0.004*[#  24]+0.002*[#  22]+0.001*[#  21]
          
    |psi|^2 = 1.000
==== e(   6) =   -21.86347 eV ==== 
     psi = 0.209*[#   3]+0.209*[#   4]+0.209*[#  13]+0.209*[#  14]+0.073*[#   2]
          +0.073*[#  12]+0.010*[#  22]+0.002*[#  23]+0.002*[#  24]
    |psi|^2 = 1.000
==== e(   7) =   -21.80254 eV ==== 
     psi = 0.298*[#   2]+0.298*[#  12]+0.099*[#   3]+0.099*[#   4]+0.099*[#  13]
          +0.099*[#  14]+0.002*[#  23]+0.002*[#  24]
    |psi|^2 = 1.000
==== e(   8) =   -21.72222 eV ==== 
     psi = 0.399*[#   2]+0.399*[#  12]+0.050*[#   3]+0.050*[#   4]+0.050*[#  13]
          +0.050*[#  14]+0.001*[#  23]+0.001*[#  24]
    |psi|^2 = 1.000
==== e(   9) =     5.73998 eV ==== 
     psi = 0.688*[#  21]+0.038*[#   7]+0.038*[#   8]+0.038*[#  17]+0.038*[#  18]
          +0.027*[#   9]+0.027*[#  10]+0.027*[#  19]+0.027*[#  20]+0.012*[#   5]
          +0.012*[#  15]+0.004*[#   3]+0.004*[#   4]+0.004*[#  13]+0.004*[#  14]
          +0.003*[#  23]+0.003*[#  24]
    |psi|^2 = 0.997
==== e(  10) =    10.87310 eV ==== 
     psi = 0.287*[#  23]+0.287*[#  24]+0.040*[#   7]+0.040*[#   8]+0.040*[#  17]
          +0.040*[#  18]+0.036*[#   5]+0.036*[#  15]+0.033*[#   6]+0.033*[#  16]
          +0.023*[#   9]+0.023*[#  10]+0.023*[#  19]+0.023*[#  20]+0.006*[#   1]
          +0.006*[#  11]+0.004*[#   2]+0.004*[#  12]+0.003*[#   3]+0.003*[#   4]
          +0.003*[#  13]+0.003*[#  14]+0.002*[#  21]
    |psi|^2 = 0.996
==== e(  11) =    11.85130 eV ==== 
     psi = 0.262*[#  23]+0.262*[#  24]+0.079*[#   7]+0.079*[#   8]+0.079*[#  17]
          +0.079*[#  18]+0.035*[#   6]+0.035*[#  16]+0.011*[#   9]+0.011*[#  10]
          +0.011*[#  19]+0.011*[#  20]+0.010*[#   5]+0.010*[#  15]+0.002*[#   2]
          +0.002*[#   3]+0.002*[#   4]+0.002*[#  12]+0.002*[#  13]+0.002*[#  14]
          +0.002*[#   1]+0.002*[#  11]
    |psi|^2 = 0.993
==== e(  12) =    12.54677 eV ==== 
     psi = 0.554*[#  22]+0.086*[#   9]+0.086*[#  10]+0.086*[#  19]+0.086*[#  20]
          +0.013*[#   7]+0.013*[#   8]+0.013*[#  17]+0.013*[#  18]+0.007*[#   6]
          +0.007*[#  16]+0.005*[#   5]+0.005*[#  15]+0.004*[#   3]+0.004*[#   4]
          +0.004*[#  13]+0.004*[#  14]+0.002*[#  23]+0.002*[#  24]
    |psi|^2 = 0.993
==== e(  13) =    14.50094 eV ==== 
     psi = 0.165*[#   7]+0.165*[#   8]+0.165*[#  17]+0.165*[#  18]+0.064*[#   9]
          +0.064*[#  10]+0.064*[#  19]+0.064*[#  20]+0.014*[#  22]+0.007*[#   5]
          +0.007*[#  15]+0.006*[#  23]+0.006*[#  24]+0.006*[#  21]+0.003*[#   6]
          +0.003*[#  16]
    |psi|^2 = 0.973
==== e(  14) =    14.78009 eV ==== 
     psi = 0.138*[#   6]+0.138*[#  16]+0.119*[#   9]+0.119*[#  10]+0.119*[#  19]
          +0.119*[#  20]+0.039*[#   7]+0.039*[#   8]+0.039*[#  17]+0.039*[#  18]
          +0.010*[#   5]+0.010*[#  15]+0.009*[#  23]+0.009*[#  24]+0.008*[#  22]
          
    |psi|^2 = 0.960
==== e(  15) =    15.16653 eV ==== 
     psi = 0.097*[#   7]+0.097*[#   8]+0.097*[#  17]+0.097*[#  18]+0.087*[#   9]
          +0.087*[#  10]+0.087*[#  19]+0.087*[#  20]+0.052*[#   6]+0.052*[#  16]
          +0.047*[#   5]+0.047*[#  15]+0.013*[#  23]+0.013*[#  24]+0.005*[#  21]
          +0.004*[#  22]+0.002*[#   2]+0.002*[#  12]
    |psi|^2 = 0.977
==== e(  16) =    17.70169 eV ==== 
     psi = 0.148*[#   7]+0.148*[#   8]+0.148*[#  17]+0.148*[#  18]+0.077*[#   9]
          +0.077*[#  10]+0.077*[#  19]+0.077*[#  20]+0.037*[#   6]+0.037*[#  16]
          +0.007*[#  23]+0.007*[#  24]+0.002*[#  21]+0.002*[#  22]
    |psi|^2 = 0.993
==== e(  17) =    17.78940 eV ==== 
     psi = 0.312*[#   6]+0.312*[#  16]+0.064*[#   9]+0.064*[#  10]+0.064*[#  19]
          +0.064*[#  20]+0.025*[#  23]+0.025*[#  24]+0.014*[#   7]+0.014*[#   8]
          +0.014*[#  17]+0.014*[#  18]+0.005*[#  22]+0.002*[#   5]+0.002*[#  15]
          
    |psi|^2 = 0.994
==== e(  18) =    18.31820 eV ==== 
     psi = 0.139*[#   9]+0.139*[#  10]+0.139*[#  19]+0.139*[#  20]+0.106*[#   6]
          +0.106*[#  16]+0.038*[#   7]+0.038*[#   8]+0.038*[#  17]+0.038*[#  18]
          +0.030*[#  23]+0.030*[#  24]+0.005*[#   5]+0.005*[#  15]+0.003*[#  21]
          
    |psi|^2 = 0.996
==== e(  19) =    19.01831 eV ==== 
     psi = 0.099*[#   6]+0.099*[#  16]+0.080*[#   9]+0.080*[#  10]+0.080*[#  19]
          +0.080*[#  20]+0.068*[#   7]+0.068*[#   8]+0.068*[#  17]+0.068*[#  18]
          +0.055*[#  23]+0.055*[#  24]+0.039*[#   5]+0.039*[#  15]+0.018*[#  21]
          
    |psi|^2 = 0.994

 k =   0.5625000000  0.0360843918  0.1921215432
==== e(   1) =   -47.99125 eV ==== 
     psi = 0.479*[#   1]+0.479*[#  11]+0.010*[#  23]+0.010*[#  24]+0.008*[#   5]
          +0.008*[#  15]+0.001*[#  22]
    |psi|^2 = 1.000
==== e(   2) =   -47.97774 eV ==== 
     psi = 0.478*[#   1]+0.478*[#  11]+0.014*[#   5]+0.014*[#  15]+0.006*[#  23]
          +0.006*[#  24]
    |psi|^2 = 1.000
==== e(   3) =   -22.09133 eV ==== 
     psi = 0.200*[#   3]+0.200*[#   4]+0.200*[#  13]+0.200*[#  14]+0.088*[#   2]
          +0.088*[#  12]+0.005*[#  23]+0.005*[#  24]+0.004*[#  21]+0.004*[#  22]
          +0.001*[#   5]+0.001*[#  15]
    |psi|^2 = 1.000
==== e(   4) =   -22.07290 eV ==== 
     psi = 0.189*[#   3]+0.189*[#   4]+0.189*[#  13]+0.189*[#  14]+0.111*[#   2]
          +0.111*[#  12]+0.006*[#  21]+0.006*[#  23]+0.006*[#  24]+0.001*[#  22]
          
    |psi|^2 = 1.000
==== e(   5) =   -21.97025 eV ==== 
     psi = 0.210*[#   3]+0.210*[#   4]+0.210*[#  13]+0.210*[#  14]+0.071*[#   2]
          +0.071*[#  12]+0.004*[#  23]+0.004*[#  24]+0.003*[#  21]+0.003*[#  22]
          
    |psi|^2 = 1.000
==== e(   6) =   -21.88313 eV ==== 
     psi = 0.228*[#   3]+0.228*[#   4]+0.228*[#  13]+0.228*[#  14]+0.037*[#   2]
          +0.037*[#  12]+0.009*[#  22]+0.001*[#  21]+0.001*[#  23]+0.001*[#  24]
          
    |psi|^2 = 1.000
==== e(   7) =   -21.75867 eV ==== 
     psi = 0.319*[#   2]+0.319*[#  12]+0.089*[#   3]+0.089*[#   4]+0.089*[#  13]
          +0.089*[#  14]+0.001*[#  23]+0.001*[#  24]
    |psi|^2 = 1.000
==== e(   8) =   -21.70070 eV ==== 
     psi = 0.364*[#   2]+0.364*[#  12]+0.067*[#   3]+0.067*[#   4]+0.067*[#  13]
          +0.067*[#  14]
    |psi|^2 = 1.000
==== e(   9) =     5.74621 eV ==== 
     psi = 0.687*[#  21]+0.041*[#   7]+0.041*[#   8]+0.041*[#  17]+0.041*[#  18]
          +0.026*[#   9]+0.026*[#  10]+0.026*[#  19]+0.026*[#  20]+0.010*[#   5]
          +0.010*[#  15]+0.004*[#   3]+0.004*[#   4]+0.004*[#  13]+0.004*[#  14]
          +0.003*[#  23]+0.003*[#  24]
    |psi|^2 = 0.998
==== e(  10) =    10.88746 eV ==== 
     psi = 0.287*[#  23]+0.287*[#  24]+0.048*[#   7]+0.048*[#   8]+0.048*[#  17]
          +0.048*[#  18]+0.031*[#   5]+0.031*[#  15]+0.029*[#   6]+0.029*[#  16]
          +0.020*[#   9]+0.020*[#  10]+0.020*[#  19]+0.020*[#  20]+0.006*[#   1]
          +0.006*[#  11]+0.004*[#   2]+0.004*[#  12]+0.002*[#  21]+0.002*[#   3]
          +0.002*[#   4]+0.002*[#  13]+0.002*[#  14]
    |psi|^2 = 0.996
==== e(  11) =    11.78972 eV ==== 
     psi = 0.254*[#  23]+0.254*[#  24]+0.084*[#   7]+0.084*[#   8]+0.084*[#  17]
          +0.084*[#  18]+0.033*[#   6]+0.033*[#  16]+0.011*[#   9]+0.011*[#  10]
          +0.011*[#  19]+0.011*[#  20]+0.010*[#   5]+0.010*[#  15]+0.003*[#  22]
          +0.003*[#   1]+0.003*[#  11]+0.002*[#   2]+0.002*[#   3]+0.002*[#   4]
          +0.002*[#  12]+0.002*[#  13]+0.002*[#  14]
    |psi|^2 = 0.994
==== e(  12) =    12.43865 eV ==== 
     psi = 0.550*[#  22]+0.088*[#   9]+0.088*[#  10]+0.088*[#  19]+0.088*[#  20]
          +0.009*[#   6]+0.009*[#  16]+0.009*[#   7]+0.009*[#   8]+0.009*[#  17]
          +0.009*[#  18]+0.006*[#  23]+0.006*[#  24]+0.005*[#   5]+0.005*[#  15]
          +0.004*[#   3]+0.004*[#   4]+0.004*[#  13]+0.004*[#  14]
    |psi|^2 = 0.992
==== e(  13) =    14.79701 eV ==== 
     psi = 0.180*[#   7]+0.180*[#   8]+0.180*[#  17]+0.180*[#  18]+0.052*[#   9]
          +0.052*[#  10]+0.052*[#  19]+0.052*[#  20]+0.011*[#  22]+0.008*[#  23]
          +0.008*[#  24]+0.005*[#   5]+0.005*[#  15]+0.003*[#  21]
    |psi|^2 = 0.971
==== e(  14) =    14.92213 eV ==== 
     psi = 0.140*[#   9]+0.140*[#  10]+0.140*[#  19]+0.140*[#  20]+0.106*[#   6]
          +0.106*[#  16]+0.028*[#   7]+0.028*[#   8]+0.028*[#  17]+0.028*[#  18]
          +0.016*[#   5]+0.016*[#  15]+0.012*[#  22]+0.011*[#  23]+0.011*[#  24]
          
    |psi|^2 = 0.954
==== e(  15) =    15.23819 eV ==== 
     psi = 0.100*[#   9]+0.100*[#  10]+0.100*[#  19]+0.100*[#  20]+0.083*[#   7]
          +0.083*[#   8]+0.083*[#  17]+0.083*[#  18]+0.052*[#   6]+0.052*[#  16]
          +0.042*[#   5]+0.042*[#  15]+0.014*[#  23]+0.014*[#  24]+0.010*[#  21]
          +0.004*[#  22]+0.001*[#   2]+0.001*[#  12]
    |psi|^2 = 0.966
==== e(  16) =    17.30369 eV ==== 
     psi = 0.138*[#   7]+0.138*[#   8]+0.138*[#  17]+0.138*[#  18]+0.088*[#   9]
          +0.088*[#  10]+0.088*[#  19]+0.088*[#  20]+0.034*[#   6]+0.034*[#  16]
          +0.007*[#  23]+0.007*[#  24]+0.002*[#  22]+0.001*[#   5]+0.001*[#  15]
          
    |psi|^2 = 0.992
==== e(  17) =    17.66355 eV ==== 
     psi = 0.356*[#   6]+0.356*[#  16]+0.042*[#   9]+0.042*[#  10]+0.042*[#  19]
          +0.042*[#  20]+0.040*[#  23]+0.040*[#  24]+0.006*[#  22]+0.005*[#   7]
          +0.005*[#   8]+0.005*[#  17]+0.005*[#  18]
    |psi|^2 = 0.992
==== e(  18) =    18.37819 eV ==== 
     psi = 0.178*[#   6]+0.178*[#  16]+0.132*[#   9]+0.132*[#  10]+0.132*[#  19]
          +0.132*[#  20]+0.026*[#  23]+0.026*[#  24]+0.013*[#   7]+0.013*[#   8]
          +0.013*[#  17]+0.013*[#  18]+0.003*[#  21]+0.002*[#   5]+0.002*[#  15]
          
    |psi|^2 = 0.998
==== e(  19) =    18.93473 eV ==== 
     psi = 0.109*[#   6]+0.109*[#  16]+0.108*[#   7]+0.108*[#   8]+0.108*[#  17]
          +0.108*[#  18]+0.096*[#  23]+0.096*[#  24]+0.024*[#   9]+0.024*[#  10]
          +0.024*[#  19]+0.024*[#  20]+0.007*[#  21]+0.006*[#   5]+0.006*[#  15]
          +0.003*[#  22]
    |psi|^2 = 0.963

 k =   0.5625000000  0.0360843918  0.2561620576
==== e(   1) =   -47.98810 eV ==== 
     psi = 0.479*[#   1]+0.479*[#  11]+0.010*[#   5]+0.010*[#  15]+0.008*[#  23]
          +0.008*[#  24]+0.002*[#  22]
    |psi|^2 = 1.000
==== e(   2) =   -47.98087 eV ==== 
     psi = 0.478*[#   1]+0.478*[#  11]+0.013*[#   5]+0.013*[#  15]+0.007*[#  23]
          +0.007*[#  24]
    |psi|^2 = 1.000
==== e(   3) =   -22.09914 eV ==== 
     psi = 0.180*[#   3]+0.180*[#   4]+0.180*[#  13]+0.180*[#  14]+0.126*[#   2]
          +0.126*[#  12]+0.008*[#  23]+0.008*[#  24]+0.005*[#  22]
    |psi|^2 = 1.000
==== e(   4) =   -22.09433 eV ==== 
     psi = 0.186*[#   3]+0.186*[#   4]+0.186*[#  13]+0.186*[#  14]+0.117*[#   2]
          +0.117*[#  12]+0.007*[#  21]+0.006*[#  23]+0.006*[#  24]
    |psi|^2 = 1.000
==== e(   5) =   -21.95948 eV ==== 
     psi = 0.221*[#   3]+0.221*[#   4]+0.221*[#  13]+0.221*[#  14]+0.048*[#   2]
          +0.048*[#  12]+0.004*[#  22]+0.004*[#  21]+0.003*[#  23]+0.003*[#  24]
          
    |psi|^2 = 1.000
==== e(   6) =   -21.90889 eV ==== 
     psi = 0.230*[#   3]+0.230*[#   4]+0.230*[#  13]+0.230*[#  14]+0.032*[#   2]
          +0.032*[#  12]+0.008*[#  22]+0.003*[#  21]+0.002*[#  23]+0.002*[#  24]
          
    |psi|^2 = 1.000
==== e(   7) =   -21.72247 eV ==== 
     psi = 0.323*[#   2]+0.323*[#  12]+0.088*[#   3]+0.088*[#   4]+0.088*[#  13]
          +0.088*[#  14]
    |psi|^2 = 1.000
==== e(   8) =   -21.69175 eV ==== 
     psi = 0.343*[#   2]+0.343*[#  12]+0.078*[#   3]+0.078*[#   4]+0.078*[#  13]
          +0.078*[#  14]
    |psi|^2 = 1.000
==== e(   9) =     5.75010 eV ==== 
     psi = 0.686*[#  21]+0.043*[#   7]+0.043*[#   8]+0.043*[#  17]+0.043*[#  18]
          +0.025*[#   9]+0.025*[#  10]+0.025*[#  19]+0.025*[#  20]+0.008*[#   5]
          +0.008*[#  15]+0.004*[#   3]+0.004*[#   4]+0.004*[#  13]+0.004*[#  14]
          +0.003*[#  23]+0.003*[#  24]
    |psi|^2 = 0.998
==== e(  10) =    10.91286 eV ==== 
     psi = 0.289*[#  23]+0.289*[#  24]+0.053*[#   7]+0.053*[#   8]+0.053*[#  17]
          +0.053*[#  18]+0.027*[#   5]+0.027*[#  15]+0.025*[#   6]+0.025*[#  16]
          +0.018*[#   9]+0.018*[#  10]+0.018*[#  19]+0.018*[#  20]+0.006*[#   1]
          +0.006*[#  11]+0.004*[#   2]+0.004*[#  12]+0.003*[#  21]+0.002*[#   3]
          +0.002*[#   4]+0.002*[#  13]+0.002*[#  14]
    |psi|^2 = 0.996
==== e(  11) =    11.73050 eV ==== 
     psi = 0.247*[#  23]+0.247*[#  24]+0.088*[#   7]+0.088*[#   8]+0.088*[#  17]
          +0.088*[#  18]+0.032*[#   6]+0.032*[#  16]+0.011*[#   5]+0.011*[#  15]
          +0.011*[#   9]+0.011*[#  10]+0.011*[#  19]+0.011*[#  20]+0.006*[#  22]
          +0.003*[#   1]+0.003*[#  11]+0.002*[#   3]+0.002*[#   4]+0.002*[#  13]
          +0.002*[#  14]+0.001*[#   2]+0.001*[#  12]
    |psi|^2 = 0.995
==== e(  12) =    12.36268 eV ==== 
     psi = 0.548*[#  22]+0.089*[#   9]+0.089*[#  10]+0.089*[#  19]+0.089*[#  20]
          +0.012*[#   6]+0.012*[#  16]+0.008*[#  23]+0.008*[#  24]+0.005*[#   7]
          +0.005*[#   8]+0.005*[#  17]+0.005*[#  18]+0.004*[#   5]+0.004*[#  15]
          +0.004*[#   3]+0.004*[#   4]+0.004*[#  13]+0.004*[#  14]
    |psi|^2 = 0.991
==== e(  13) =    15.00917 eV ==== 
     psi = 0.107*[#   7]+0.107*[#   8]+0.107*[#  17]+0.107*[#  18]+0.085*[#   9]
          +0.085*[#  10]+0.085*[#  19]+0.085*[#  20]+0.035*[#   6]+0.035*[#  16]
          +0.024*[#   5]+0.024*[#  15]+0.023*[#  23]+0.023*[#  24]+0.001*[#   3]
          +0.001*[#   4]+0.001*[#  13]+0.001*[#  14]+0.001*[#   2]+0.001*[#  12]
          
    |psi|^2 = 0.942
==== e(  14) =    15.11370 eV ==== 
     psi = 0.130*[#   9]+0.130*[#  10]+0.130*[#  19]+0.130*[#  20]+0.094*[#   7]
          +0.094*[#   8]+0.094*[#  17]+0.094*[#  18]+0.018*[#   5]+0.018*[#  15]
          +0.016*[#  22]+0.009*[#   6]+0.009*[#  16]
    |psi|^2 = 0.970
==== e(  15) =    15.30895 eV ==== 
     psi = 0.092*[#   9]+0.092*[#  10]+0.092*[#  19]+0.092*[#  20]+0.088*[#   7]
          +0.088*[#   8]+0.088*[#  17]+0.088*[#  18]+0.076*[#   6]+0.076*[#  16]
          +0.017*[#   5]+0.017*[#  15]+0.015*[#  23]+0.015*[#  24]+0.012*[#  21]
          +0.009*[#  22]
    |psi|^2 = 0.960
==== e(  16) =    16.93427 eV ==== 
     psi = 0.115*[#   7]+0.115*[#   8]+0.115*[#  17]+0.115*[#  18]+0.100*[#   9]
          +0.100*[#  10]+0.100*[#  19]+0.100*[#  20]+0.052*[#   6]+0.052*[#  16]
          +0.010*[#  23]+0.010*[#  24]+0.002*[#   5]+0.002*[#  15]+0.002*[#  22]
          
    |psi|^2 = 0.990
==== e(  17) =    17.58767 eV ==== 
     psi = 0.373*[#   6]+0.373*[#  16]+0.055*[#  23]+0.055*[#  24]+0.026*[#   9]
          +0.026*[#  10]+0.026*[#  19]+0.026*[#  20]+0.008*[#  22]+0.005*[#   7]
          +0.005*[#   8]+0.005*[#  17]+0.005*[#  18]+0.002*[#   5]+0.002*[#  15]
          
    |psi|^2 = 0.991
==== e(  18) =    18.33407 eV ==== 
     psi = 0.267*[#   6]+0.267*[#  16]+0.095*[#   9]+0.095*[#  10]+0.095*[#  19]
          +0.095*[#  20]+0.018*[#  23]+0.018*[#  24]+0.011*[#   7]+0.011*[#   8]
          +0.011*[#  17]+0.011*[#  18]+0.001*[#   5]+0.001*[#  15]+0.001*[#  21]
          
    |psi|^2 = 0.998
==== e(  19) =    18.83665 eV ==== 
     psi = 0.119*[#   7]+0.119*[#   8]+0.119*[#  17]+0.119*[#  18]+0.092*[#  23]
          +0.092*[#  24]+0.052*[#   9]+0.052*[#  10]+0.052*[#  19]+0.052*[#  20]
          +0.039*[#   6]+0.039*[#  16]+0.014*[#  21]+0.001*[#  22]
    |psi|^2 = 0.965

Lowdin Charges: 

     Atom #   1: total charge =  12.4883, s =  2.6043, 
     Atom #   1: total charge =  12.4883, p =  5.9882, pz=  1.9961, px=  1.9961, py=  1.9961, 
     Atom #   1: total charge =  12.4883, d =  3.8957, dz2=  0.7783, dxz=  0.7985, dyz=  0.7985, dx2-y2=  0.7602, dxy=  0.7602, 
     Atom #   2: total charge =  12.4883, s =  2.6043, 
     Atom #   2: total charge =  12.4883, p =  5.9882, pz=  1.9961, px=  1.9961, py=  1.9961, 
     Atom #   2: total charge =  12.4883, d =  3.8957, dz2=  0.7783, dxz=  0.7985, dyz=  0.7985, dx2-y2=  0.7602, dxy=  0.7602, 
     Atom #   3: total charge =   4.8167, s =  1.3969, 
     Atom #   3: total charge =   4.8167, p =  3.4198, pz=  1.1616, px=  1.1291, py=  1.1291, 
     Atom #   3: total charge =   4.8167, d =  0.0000, dz2=  0.0000, dxz=  0.0000, dyz=  0.0000, dx2-y2=  0.0000, dxy=  0.0000, 
     Spilling Parameter:   0.0069

     PROJWFC      :     26.25s CPU     30.38s WALL


   This run was terminated on:  22:52:40   1Jun2024            

=------------------------------------------------------------------------------=
   JOB DONE.
=------------------------------------------------------------------------------=
