
     Program PHONON v.6.7MaX starts on  3Jun2024 at  4: 6:21 

     This program is part of the open-source Quantum ESPRESSO suite
     for quantum simulation of materials; please cite
         "P. Giannozzi et al., J. Phys.:Condens. Matter 21 395502 (2009);
         "P. Giannozzi et al., J. Phys.:Condens. Matter 29 465901 (2017);
          URL http://www.quantum-espresso.org", 
     in publications or presentations arising from this work. More details at
     http://www.quantum-espresso.org/quote

     Parallel version (MPI), running on     1 processors

     MPI processes distributed on     1 nodes
     Waiting for input...
     Reading input from standard input
      Title line not specified: using 'default'.

     Reading xml data from directory:

     ./out/v2c.save/
     file C.pbe-n-kjpaw_psl.1.0.0.UPF: wavefunction(s)  2S 2P renormalized

     IMPORTANT: XC functional enforced from input :
     Exchange-correlation= PBE
                           (   1   4   3   4   0   0   0)
     Any further DFT definition will be discarded
     Please, verify this is what you really want


     G-vector sticks info
     --------------------
     sticks:   dense  smooth     PW     G-vecs:    dense   smooth      PW
     Sum         745     367    121                25371     8971    1797


     Check: negative core charge=   -0.000007

     negative rho (up, down):  1.844E-03 0.000E+00
     Reading collected, re-writing distributed wavefunctions

     Calculation of q =    0.0000000   0.0000000   0.0000000

     default                                                                    

     bravais-lattice index     =            0
     lattice parameter (alat)  =       5.4472  a.u.
     unit-cell volume          =     218.5677 (a.u.)^3
     number of atoms/cell      =            3
     number of atomic types    =            2
     kinetic-energy cut-off    =      45.0000  Ry
     charge density cut-off    =     360.0000  Ry
     convergence threshold     =      1.0E-14
     beta                      =       0.7000
     number of iterations used =            4
     Exchange-correlation= PBE
                           (   1   4   3   4   0   0   0)


     celldm(1)=    5.44716  celldm(2)=    0.00000  celldm(3)=    0.00000
     celldm(4)=    0.00000  celldm(5)=    0.00000  celldm(6)=    0.00000

     crystal axes: (cart. coord. in units of alat)
               a(1) = ( -0.5000 -0.8660  0.0000 )  
               a(2) = ( -0.5000  0.8660  0.0000 )  
               a(3) = (  0.0000  0.0000 -1.5615 )  

     reciprocal axes: (cart. coord. in units 2 pi/alat)
               b(1) = ( -1.0000 -0.5774 -0.0000 )  
               b(2) = ( -1.0000  0.5774  0.0000 )  
               b(3) = ( -0.0000  0.0000 -0.6404 )  


     Atoms inside the unit cell: 

     Cartesian axes

     site n.  atom      mass           positions (alat units)
        1     V   50.9415   tau(    1) = (   -0.50000    0.28868   -0.39845  )
        2     V   50.9415   tau(    2) = (   -0.50000   -0.28868   -1.16306  )
        3     C   12.0107   tau(    3) = (    0.00000    0.00000    0.00000  )

     Computing dynamical matrix for 
                    q = (   0.0000000   0.0000000   0.0000000 )

     13 Sym.Ops. (with q -> -q+G )


     G cutoff =  270.5720  (  25371 G-vectors)     FFT grid: ( 36, 36, 54)
     G cutoff =  135.2860  (   8971 G-vectors)  smooth grid: ( 24, 24, 40)

     number of k points=   595  Marzari-Vanderbilt smearing, width (Ry)=  0.0147

     PseudoPot. # 1 for C  read from file:
     /usr/share/espresso/pseudo/C.pbe-n-kjpaw_psl.1.0.0.UPF
     MD5 check sum: 5d2aebdfa2cae82b50a7e79e9516da0f
     Pseudo is Projector augmented-wave + core cor, Zval =  4.0
     Generated using "atomic" code by A. Dal Corso  v.5.1
     Shape of augmentation charge: PSQ
     Using radial grid of 1073 points,  4 beta functions with: 
                l(1) =   0
                l(2) =   0
                l(3) =   1
                l(4) =   1
     Q(r) pseudized with 0 coefficients 


     PseudoPot. # 2 for V  read from file:
     /usr/share/espresso/pseudo/v_pbe_v1.4.uspp.F.UPF
     MD5 check sum: 22b79981416ebb76fdaf5b1b8640f6fb
     Pseudo is Ultrasoft + core correction, Zval = 13.0
     Generated by new atomic code, or converted to UPF format
     Using radial grid of  853 points,  6 beta functions with: 
                l(1) =   0
                l(2) =   0
                l(3) =   1
                l(4) =   1
                l(5) =   2
                l(6) =   2
     Q(r) pseudized with  8 coefficients,  rinner =    1.100   1.100   1.100
                                                       1.100   1.100

     Mode symmetry, D_3d (-3m)  point group:


     Atomic displacements:
     There are    6 irreducible representations

     Representation     1      1 modes -  To be done

     Representation     2      2 modes -  To be done

     Representation     3      1 modes -  To be done

     Representation     4      1 modes -  To be done

     Representation     5      2 modes -  To be done

     Representation     6      2 modes -  To be done



     Alpha used in Ewald sum =   2.8000

     negative rho (up, down):  1.844E-03 0.000E+00
     PHONON       :   2m54.81s CPU   3m 0.01s WALL



     Representation #   1 mode #   1

     Self-consistent Calculation

     Pert. #  1: Fermi energy shift (Ry) =    -2.4669E-01     5.1699E-25

      iter #   1 total cpu time :   450.8 secs   av.it.:   9.7
      thresh= 1.000E-02 alpha_mix =  0.700 |ddv_scf|^2 =  4.571E-04

     Pert. #  1: Fermi energy shift (Ry) =     1.1386E+00    -1.0340E-24

      iter #   2 total cpu time :   785.0 secs   av.it.:  13.7
      thresh= 2.138E-03 alpha_mix =  0.700 |ddv_scf|^2 =  1.397E-03

     Pert. #  1: Fermi energy shift (Ry) =    -6.6903E-01     7.7548E-26

      iter #   3 total cpu time :  1081.4 secs   av.it.:  12.0
      thresh= 3.738E-03 alpha_mix =  0.700 |ddv_scf|^2 =  2.472E-05

     Pert. #  1: Fermi energy shift (Ry) =     1.6418E-01    -3.1019E-25

      iter #   4 total cpu time :  1405.4 secs   av.it.:  13.0
      thresh= 4.972E-04 alpha_mix =  0.700 |ddv_scf|^2 =  2.852E-07

     Pert. #  1: Fermi energy shift (Ry) =     2.6383E-02     2.5849E-26

      iter #   5 total cpu time :  1755.9 secs   av.it.:  13.8
      thresh= 5.340E-05 alpha_mix =  0.700 |ddv_scf|^2 =  4.011E-09

     Pert. #  1: Fermi energy shift (Ry) =     3.4598E-02     9.6935E-27

      iter #   6 total cpu time :  2081.6 secs   av.it.:  13.3
      thresh= 6.333E-06 alpha_mix =  0.700 |ddv_scf|^2 =  2.387E-11

     Pert. #  1: Fermi energy shift (Ry) =     3.4375E-02     1.2925E-26

      iter #   7 total cpu time :  2391.7 secs   av.it.:  13.1
      thresh= 4.886E-07 alpha_mix =  0.700 |ddv_scf|^2 =  1.295E-12

     Pert. #  1: Fermi energy shift (Ry) =     3.4323E-02     1.2925E-26

      iter #   8 total cpu time :  2689.6 secs   av.it.:  12.3
      thresh= 1.138E-07 alpha_mix =  0.700 |ddv_scf|^2 =  5.002E-14

     Pert. #  1: Fermi energy shift (Ry) =     3.4299E-02     1.2925E-26

      iter #   9 total cpu time :  3015.6 secs   av.it.:  13.3
      thresh= 2.236E-08 alpha_mix =  0.700 |ddv_scf|^2 =  5.970E-15

     End of self-consistent calculation

     Convergence has been achieved 


     Representation #   2 modes #   2   3

     Self-consistent Calculation

     Pert. #  1: Fermi energy shift (Ry) =    -3.6140E-20    -1.2245E-40
     Pert. #  2: Fermi energy shift (Ry) =    -2.7105E-20    -1.2245E-40

      iter #   1 total cpu time :  3569.2 secs   av.it.:   8.4
      thresh= 1.000E-02 alpha_mix =  0.700 |ddv_scf|^2 =  5.143E-06

     Pert. #  1: Fermi energy shift (Ry) =    -2.0329E-20     5.3571E-41
     Pert. #  2: Fermi energy shift (Ry) =    -9.0350E-21    -8.4183E-41

      iter #   2 total cpu time :  4514.1 secs   av.it.:  14.6
      thresh= 2.268E-04 alpha_mix =  0.700 |ddv_scf|^2 =  2.505E-07

     Pert. #  1: Fermi energy shift (Ry) =     5.4069E-20     0.0000E+00
     Pert. #  2: Fermi energy shift (Ry) =    -3.8611E-20     7.1746E-43

      iter #   3 total cpu time :  5655.1 secs   av.it.:  14.8
      thresh= 5.005E-05 alpha_mix =  0.700 |ddv_scf|^2 =  1.067E-09

     Pert. #  1: Fermi energy shift (Ry) =    -2.6964E-20    -2.3915E-43
     Pert. #  2: Fermi energy shift (Ry) =     6.5645E-21    -1.1958E-42

      iter #   4 total cpu time :  6756.3 secs   av.it.:  14.2
      thresh= 3.267E-06 alpha_mix =  0.700 |ddv_scf|^2 =  1.046E-11

     Pert. #  1: Fermi energy shift (Ry) =    -1.8882E-21    -1.0762E-42
     Pert. #  2: Fermi energy shift (Ry) =     1.3455E-20    -5.9789E-43

      iter #   5 total cpu time :  7914.3 secs   av.it.:  14.9
      thresh= 3.234E-07 alpha_mix =  0.700 |ddv_scf|^2 =  1.927E-13

     Pert. #  1: Fermi energy shift (Ry) =     4.9587E-21    -8.3704E-43
     Pert. #  2: Fermi energy shift (Ry) =    -4.4469E-21    -5.9789E-43

      iter #   6 total cpu time : 34019.1 secs   av.it.:  15.0
      thresh= 4.390E-08 alpha_mix =  0.700 |ddv_scf|^2 =  4.703E-15

     End of self-consistent calculation

     Convergence has been achieved 


     Representation #   3 mode #   4

     Self-consistent Calculation

     Pert. #  1: Fermi energy shift (Ry) =     0.0000E+00     0.0000E+00

      iter #   1 total cpu time : 34120.1 secs   av.it.:   7.0
      thresh= 1.000E-02 alpha_mix =  0.700 |ddv_scf|^2 =  1.475E-04

     Pert. #  1: Fermi energy shift (Ry) =     0.0000E+00     0.0000E+00

      iter #   2 total cpu time : 34274.1 secs   av.it.:  14.4
      thresh= 1.214E-03 alpha_mix =  0.700 |ddv_scf|^2 =  1.341E-02

     Pert. #  1: Fermi energy shift (Ry) =     0.0000E+00     0.0000E+00

      iter #   3 total cpu time : 34397.6 secs   av.it.:  10.8
      thresh= 1.000E-02 alpha_mix =  0.700 |ddv_scf|^2 =  5.144E-05

     Pert. #  1: Fermi energy shift (Ry) =     0.0000E+00     0.0000E+00

      iter #   4 total cpu time : 34537.8 secs   av.it.:  11.0
      thresh= 7.172E-04 alpha_mix =  0.700 |ddv_scf|^2 =  4.107E-06

     Pert. #  1: Fermi energy shift (Ry) =     0.0000E+00     0.0000E+00

      iter #   5 total cpu time : 34672.0 secs   av.it.:  10.8
      thresh= 2.027E-04 alpha_mix =  0.700 |ddv_scf|^2 =  1.791E-09

     Pert. #  1: Fermi energy shift (Ry) =     0.0000E+00     0.0000E+00

      iter #   6 total cpu time : 34828.2 secs   av.it.:  11.7
      thresh= 4.232E-06 alpha_mix =  0.700 |ddv_scf|^2 =  4.725E-12

     Pert. #  1: Fermi energy shift (Ry) =     0.0000E+00     0.0000E+00

      iter #   7 total cpu time : 34979.5 secs   av.it.:  11.7
      thresh= 2.174E-07 alpha_mix =  0.700 |ddv_scf|^2 =  1.955E-13

     Pert. #  1: Fermi energy shift (Ry) =     0.0000E+00     0.0000E+00

      iter #   8 total cpu time : 35137.2 secs   av.it.:  12.1
      thresh= 4.421E-08 alpha_mix =  0.700 |ddv_scf|^2 =  2.827E-14

     Pert. #  1: Fermi energy shift (Ry) =     0.0000E+00     0.0000E+00

      iter #   9 total cpu time : 35287.3 secs   av.it.:  11.3
      thresh= 1.681E-08 alpha_mix =  0.700 |ddv_scf|^2 =  2.977E-15

     End of self-consistent calculation

     Convergence has been achieved 


     Representation #   4 mode #   5

     Self-consistent Calculation

     Pert. #  1: Fermi energy shift (Ry) =     0.0000E+00     0.0000E+00

      iter #   1 total cpu time : 35419.4 secs   av.it.:   8.2
      thresh= 1.000E-02 alpha_mix =  0.700 |ddv_scf|^2 =  2.117E-05

     Pert. #  1: Fermi energy shift (Ry) =     0.0000E+00     0.0000E+00

      iter #   2 total cpu time : 35604.8 secs   av.it.:  14.6
      thresh= 4.601E-04 alpha_mix =  0.700 |ddv_scf|^2 =  4.790E-04

     Pert. #  1: Fermi energy shift (Ry) =     0.0000E+00     0.0000E+00

      iter #   3 total cpu time : 35752.2 secs   av.it.:  11.1
      thresh= 2.189E-03 alpha_mix =  0.700 |ddv_scf|^2 =  6.793E-05

     Pert. #  1: Fermi energy shift (Ry) =     0.0000E+00     0.0000E+00

      iter #   4 total cpu time : 35914.6 secs   av.it.:  11.6
      thresh= 8.242E-04 alpha_mix =  0.700 |ddv_scf|^2 =  9.333E-07

     Pert. #  1: Fermi energy shift (Ry) =     0.0000E+00     0.0000E+00

      iter #   5 total cpu time : 36078.1 secs   av.it.:  11.5
      thresh= 9.661E-05 alpha_mix =  0.700 |ddv_scf|^2 =  6.472E-08

     Pert. #  1: Fermi energy shift (Ry) =     0.0000E+00     0.0000E+00

      iter #   6 total cpu time : 36257.1 secs   av.it.:  11.5
      thresh= 2.544E-05 alpha_mix =  0.700 |ddv_scf|^2 =  4.343E-10

     Pert. #  1: Fermi energy shift (Ry) =     0.0000E+00     0.0000E+00

      iter #   7 total cpu time : 36444.2 secs   av.it.:  11.5
      thresh= 2.084E-06 alpha_mix =  0.700 |ddv_scf|^2 =  9.584E-13

     Pert. #  1: Fermi energy shift (Ry) =     0.0000E+00     0.0000E+00

      iter #   8 total cpu time : 36604.9 secs   av.it.:  12.7
      thresh= 9.790E-08 alpha_mix =  0.700 |ddv_scf|^2 =  1.374E-13

     Pert. #  1: Fermi energy shift (Ry) =     0.0000E+00     0.0000E+00

      iter #   9 total cpu time : 36728.3 secs   av.it.:  11.3
      thresh= 3.707E-08 alpha_mix =  0.700 |ddv_scf|^2 =  1.890E-16

     End of self-consistent calculation

     Convergence has been achieved 


     Representation #   5 modes #   6   7

     Self-consistent Calculation

     Pert. #  1: Fermi energy shift (Ry) =     5.5145E-25     0.0000E+00
     Pert. #  2: Fermi energy shift (Ry) =     1.3786E-25     0.0000E+00

      iter #   1 total cpu time : 36899.8 secs   av.it.:   5.9
      thresh= 1.000E-02 alpha_mix =  0.700 |ddv_scf|^2 =  1.946E-07

     Pert. #  1: Fermi energy shift (Ry) =    -5.1699E-26     0.0000E+00
     Pert. #  2: Fermi energy shift (Ry) =     0.0000E+00    -6.1224E-41

      iter #   2 total cpu time : 37221.3 secs   av.it.:  14.4
      thresh= 4.411E-05 alpha_mix =  0.700 |ddv_scf|^2 =  7.065E-09

     Pert. #  1: Fermi energy shift (Ry) =     8.6165E-26    -6.1224E-41
     Pert. #  2: Fermi energy shift (Ry) =     0.0000E+00     1.2245E-40

      iter #   3 total cpu time : 37545.5 secs   av.it.:  14.9
      thresh= 8.405E-06 alpha_mix =  0.700 |ddv_scf|^2 =  3.550E-10

     Pert. #  1: Fermi energy shift (Ry) =    -1.9818E-25     7.6530E-42
     Pert. #  2: Fermi energy shift (Ry) =    -2.1541E-26    -1.5306E-41

      iter #   4 total cpu time : 37856.8 secs   av.it.:  13.9
      thresh= 1.884E-06 alpha_mix =  0.700 |ddv_scf|^2 =  7.392E-12

     Pert. #  1: Fermi energy shift (Ry) =     4.3082E-26    -1.0714E-40
     Pert. #  2: Fermi energy shift (Ry) =     2.5849E-26    -3.0612E-41

      iter #   5 total cpu time : 38177.4 secs   av.it.:  14.6
      thresh= 2.719E-07 alpha_mix =  0.700 |ddv_scf|^2 =  1.563E-13

     Pert. #  1: Fermi energy shift (Ry) =     0.0000E+00     3.0612E-41
     Pert. #  2: Fermi energy shift (Ry) =     4.3082E-27     3.0612E-41

      iter #   6 total cpu time : 40470.2 secs   av.it.:  14.4
      thresh= 3.954E-08 alpha_mix =  0.700 |ddv_scf|^2 =  5.956E-15

     End of self-consistent calculation

     Convergence has been achieved 


     Representation #   6 modes #   8   9

     Self-consistent Calculation

     Pert. #  1: Fermi energy shift (Ry) =     0.0000E+00    -1.2539E-37
     Pert. #  2: Fermi energy shift (Ry) =    -1.3786E-24    -6.2693E-38

      iter #   1 total cpu time : 40740.0 secs   av.it.:   8.2
      thresh= 1.000E-02 alpha_mix =  0.700 |ddv_scf|^2 =  4.296E-06

     Pert. #  1: Fermi energy shift (Ry) =     0.0000E+00     1.2245E-40
     Pert. #  2: Fermi energy shift (Ry) =     1.3786E-25     0.0000E+00

      iter #   2 total cpu time : 41164.1 secs   av.it.:  14.5
      thresh= 2.073E-04 alpha_mix =  0.700 |ddv_scf|^2 =  1.834E-07

     Pert. #  1: Fermi energy shift (Ry) =     0.0000E+00     0.0000E+00
     Pert. #  2: Fermi energy shift (Ry) =    -2.7573E-25     4.5918E-41

      iter #   3 total cpu time : 41535.5 secs   av.it.:  14.8
      thresh= 4.283E-05 alpha_mix =  0.700 |ddv_scf|^2 =  1.501E-09

     Pert. #  1: Fermi energy shift (Ry) =     0.0000E+00     3.8265E-42
     Pert. #  2: Fermi energy shift (Ry) =    -3.4466E-26     1.3393E-41

      iter #   4 total cpu time : 41881.2 secs   av.it.:  14.5
      thresh= 3.875E-06 alpha_mix =  0.700 |ddv_scf|^2 =  2.461E-11

     Pert. #  1: Fermi energy shift (Ry) =     0.0000E+00     0.0000E+00
     Pert. #  2: Fermi energy shift (Ry) =     1.0340E-25     0.0000E+00

      iter #   5 total cpu time : 42403.3 secs   av.it.:  14.7
      thresh= 4.961E-07 alpha_mix =  0.700 |ddv_scf|^2 =  7.537E-13

     Pert. #  1: Fermi energy shift (Ry) =    -3.4466E-26     0.0000E+00
     Pert. #  2: Fermi energy shift (Ry) =     1.0340E-25     0.0000E+00

      iter #   6 total cpu time : 42901.3 secs   av.it.:  14.5
      thresh= 8.682E-08 alpha_mix =  0.700 |ddv_scf|^2 =  1.667E-15

     End of self-consistent calculation

     Convergence has been achieved 

     Number of q in the star =    1
     List of q in the star:
          1  -0.000000000   0.000000000   0.000000000

     Diagonalizing the dynamical matrix

     q = (    0.000000000   0.000000000   0.000000000 ) 

 **************************************************************************
     freq (    1) =      -0.759254 [THz] =     -25.325994 [cm-1]
     freq (    2) =      -0.385553 [THz] =     -12.860661 [cm-1]
     freq (    3) =      -0.385553 [THz] =     -12.860661 [cm-1]
     freq (    4) =       6.220616 [THz] =     207.497399 [cm-1]
     freq (    5) =       6.220616 [THz] =     207.497399 [cm-1]
     freq (    6) =      11.255688 [THz] =     375.449332 [cm-1]
     freq (    7) =      19.835143 [THz] =     661.629144 [cm-1]
     freq (    8) =      20.379002 [THz] =     679.770341 [cm-1]
     freq (    9) =      20.379002 [THz] =     679.770341 [cm-1]
 **************************************************************************

     Mode symmetry, D_3d (-3m)  point group:

     freq (   1-   1) =        -25.3  [cm-1]   --> A_2u L_2'       I  
     freq (   2-   3) =        -12.9  [cm-1]   --> E_u  L_3'       I  
     freq (   4-   5) =        207.5  [cm-1]   --> E_g  L_3        R  
     freq (   6-   6) =        375.4  [cm-1]   --> A_1g L_1        R  
     freq (   7-   7) =        661.6  [cm-1]   --> A_2u L_2'       I  
     freq (   8-   9) =        679.8  [cm-1]   --> E_u  L_3'       I  

     PHONON       :      4h 4m CPU     11h55m WALL

     INITIALIZATION: 
     phq_setup    :      0.12s CPU      0.17s WALL (       1 calls)
     phq_init     :    173.23s CPU    177.77s WALL (       1 calls)

     phq_init     :    173.23s CPU    177.77s WALL (       1 calls)
     set_drhoc    :      2.88s CPU      3.00s WALL (       3 calls)
     init_vloc    :      0.03s CPU      0.03s WALL (       1 calls)
     init_us_1    :      0.34s CPU      0.35s WALL (       1 calls)
     newd         :      0.06s CPU      0.13s WALL (       1 calls)
     dvanqq       :      3.53s CPU      3.68s WALL (       1 calls)
     drho         :    139.14s CPU    142.29s WALL (       1 calls)

     DYNAMICAL MATRIX:
     dynmat0      :     18.38s CPU     19.02s WALL (       1 calls)
     phqscf       :  14511.00s CPU  42736.86s WALL (       1 calls)
     dynmatrix    :      0.00s CPU      0.02s WALL (       1 calls)

     phqscf       :  14511.00s CPU  42736.86s WALL (       1 calls)
     solve_linter :  14455.06s CPU  42676.26s WALL (       6 calls)
     drhodv       :     55.94s CPU     60.53s WALL (       6 calls)

     dynmat0      :     18.38s CPU     19.02s WALL (       1 calls)
     dynmat_us    :     16.50s CPU     17.05s WALL (       1 calls)
     d2ionq       :      0.03s CPU      0.03s WALL (       1 calls)
     dynmatcc     :      1.84s CPU      1.94s WALL (       1 calls)

     dynmat_us    :     16.50s CPU     17.05s WALL (       1 calls)
     addusdynmat  :      0.00s CPU      0.00s WALL (       1 calls)

     phqscf       :  14511.00s CPU  42736.86s WALL (       1 calls)
     solve_linter :  14455.06s CPU  42676.26s WALL (       6 calls)

     solve_linter :  14455.06s CPU  42676.26s WALL (       6 calls)
     dvqpsi_us    :    121.45s CPU    124.42s WALL (    5355 calls)
     ortho        :    318.80s CPU    335.72s WALL (   37485 calls)
     cgsolve      :  12851.02s CPU  13676.60s WALL (   37485 calls)
     incdrhoscf   :    557.44s CPU    595.63s WALL (   37485 calls)
     addusddens   :     10.67s CPU     11.23s WALL (      51 calls)
     vpsifft      :    364.31s CPU    387.50s WALL (   32130 calls)
     dv_of_drho   :      1.86s CPU      2.11s WALL (      63 calls)
     mix_pot      :      0.22s CPU      0.89s WALL (      45 calls)
     ef_shift     :      0.78s CPU      5.75s WALL (      51 calls)
     localdos     :     55.78s CPU     58.14s WALL (       6 calls)
     psymdvscf    :      2.14s CPU      2.32s WALL (      45 calls)
     newdq        :      9.83s CPU     10.50s WALL (      45 calls)
     adddvscf     :    121.81s CPU    130.22s WALL (   32130 calls)
     drhodvus     :      0.02s CPU      0.11s WALL (       6 calls)

     dvqpsi_us    :    121.45s CPU    124.42s WALL (    5355 calls)
     dvqpsi_us_on :     49.36s CPU     49.90s WALL (    5355 calls)

     cgsolve      :  12851.02s CPU  13676.60s WALL (   37485 calls)
     ch_psi       :  12580.44s CPU  13391.04s WALL (  977721 calls)

     ch_psi       :  12580.44s CPU  13391.04s WALL (  977721 calls)
     h_psi        :   7938.88s CPU   8463.12s WALL (  977721 calls)
     last         :   3338.30s CPU   3541.81s WALL (  977721 calls)

     h_psi        :   7938.88s CPU   8463.12s WALL (  977721 calls)
     add_vuspsi   :   1327.12s CPU   1402.24s WALL (  977721 calls)

     incdrhoscf   :    557.44s CPU    595.63s WALL (   37485 calls)
     addusdbec    :    132.61s CPU    141.11s WALL (   42840 calls)

     drhodvus     :      0.02s CPU      0.11s WALL (       6 calls)

      General routines
     calbec       :   2658.09s CPU   2808.98s WALL ( 2066707 calls)
     fft          :      2.47s CPU      2.68s WALL (    1352 calls)
     ffts         :     39.98s CPU     41.25s WALL (   60874 calls)
     fftw         :   5409.89s CPU   5750.72s WALL (17797536 calls)
     davcio       :      1.67s CPU  27303.70s WALL (  159922 calls)
     write_rec    :      0.02s CPU      0.59s WALL (      51 calls)


     PHONON       :      4h 4m CPU     11h55m WALL


   This run was terminated on:  16: 1:38   3Jun2024            

=------------------------------------------------------------------------------=
   JOB DONE.
=------------------------------------------------------------------------------=
