
     Program PWSCF v.6.7MaX starts on  3Jun2024 at  3:31:31 

     This program is part of the open-source Quantum ESPRESSO suite
     for quantum simulation of materials; please cite
         "P. Giannozzi et al., J. Phys.:Condens. Matter 21 395502 (2009);
         "P. Giannozzi et al., J. Phys.:Condens. Matter 29 465901 (2017);
          URL http://www.quantum-espresso.org", 
     in publications or presentations arising from this work. More details at
     http://www.quantum-espresso.org/quote

     Parallel version (MPI), running on     1 processors

     MPI processes distributed on     1 nodes
     Waiting for input...
     Reading input from standard input
Warning: card &CELL ignored
Warning: card CELL_DOFREE='IBRAV' ignored
Warning: card / ignored

     Current dimensions of program PWSCF are:
     Max number of different atomic species (ntypx) = 10
     Max number of k-points (npk) =  40000
     Max angular momentum in pseudopotentials (lmaxx) =  3
     file C.pbe-n-kjpaw_psl.1.0.0.UPF: wavefunction(s)  2S 2P renormalized

     Subspace diagonalization in iterative solution of the eigenvalue problem:
     a serial algorithm will be used

     Message from routine setup:
     using ibrav=0 with symmetry is DISCOURAGED, use correct ibrav instead

     G-vector sticks info
     --------------------
     sticks:   dense  smooth     PW     G-vecs:    dense   smooth      PW
     Sum         745     367    121                25371     8971    1797



     bravais-lattice index     =            0
     lattice parameter (alat)  =       5.4472  a.u.
     unit-cell volume          =     218.5677 (a.u.)^3
     number of atoms/cell      =            3
     number of atomic types    =            2
     number of electrons       =        30.00
     number of Kohn-Sham states=           19
     kinetic-energy cutoff     =      45.0000  Ry
     charge density cutoff     =     360.0000  Ry
     scf convergence threshold =      6.0E-10
     mixing beta               =       0.4000
     number of iterations used =            8  plain     mixing
     Exchange-correlation=  SLA  PW   PBX  PBC
                           (   1   4   3   4   0   0   0)

     celldm(1)=   5.447159  celldm(2)=   0.000000  celldm(3)=   0.000000
     celldm(4)=   0.000000  celldm(5)=   0.000000  celldm(6)=   0.000000

     crystal axes: (cart. coord. in units of alat)
               a(1) = (  -0.500000  -0.866025  -0.000000 )  
               a(2) = (  -0.500000   0.866025   0.000000 )  
               a(3) = (   0.000000   0.000000  -1.561512 )  

     reciprocal axes: (cart. coord. in units 2 pi/alat)
               b(1) = ( -1.000000 -0.577350 -0.000000 )  
               b(2) = ( -1.000000  0.577350  0.000000 )  
               b(3) = (  0.000000  0.000000 -0.640405 )  


     PseudoPot. # 1 for C  read from file:
     /usr/share/espresso/pseudo/C.pbe-n-kjpaw_psl.1.0.0.UPF
     MD5 check sum: 5d2aebdfa2cae82b50a7e79e9516da0f
     Pseudo is Projector augmented-wave + core cor, Zval =  4.0
     Generated using "atomic" code by A. Dal Corso  v.5.1
     Shape of augmentation charge: PSQ
     Using radial grid of 1073 points,  4 beta functions with: 
                l(1) =   0
                l(2) =   0
                l(3) =   1
                l(4) =   1
     Q(r) pseudized with 0 coefficients 


     PseudoPot. # 2 for V  read from file:
     /usr/share/espresso/pseudo/v_pbe_v1.4.uspp.F.UPF
     MD5 check sum: 22b79981416ebb76fdaf5b1b8640f6fb
     Pseudo is Ultrasoft + core correction, Zval = 13.0
     Generated by new atomic code, or converted to UPF format
     Using radial grid of  853 points,  6 beta functions with: 
                l(1) =   0
                l(2) =   0
                l(3) =   1
                l(4) =   1
                l(5) =   2
                l(6) =   2
     Q(r) pseudized with  8 coefficients,  rinner =    1.100   1.100   1.100
                                                       1.100   1.100

     atomic species   valence    mass     pseudopotential
        C              4.00    12.01070     C ( 1.00)
        V             13.00    50.94150     V ( 1.00)

     12 Sym. Ops., with inversion, found


                                    s                        frac. trans.

      isym =  1     identity                                     

 cryst.   s( 1) = (     1          0          0      )
                  (     0          1          0      )
                  (     0          0          1      )

 cart.    s( 1) = (  1.0000000  0.0000000  0.0000000 )
                  (  0.0000000  1.0000000  0.0000000 )
                  (  0.0000000  0.0000000  1.0000000 )


      isym =  2     180 deg rotation - cart. axis [1,0,0]        

 cryst.   s( 2) = (     0          1          0      )
                  (     1          0          0      )
                  (     0          0         -1      )

 cart.    s( 2) = (  1.0000000  0.0000000  0.0000000 )
                  (  0.0000000 -1.0000000  0.0000000 )
                  (  0.0000000  0.0000000 -1.0000000 )


      isym =  3     120 deg rotation - cryst. axis [0,0,1]       

 cryst.   s( 3) = (    -1         -1          0      )
                  (     1          0          0      )
                  (     0          0          1      )

 cart.    s( 3) = ( -0.5000000 -0.8660254  0.0000000 )
                  (  0.8660254 -0.5000000  0.0000000 )
                  (  0.0000000  0.0000000  1.0000000 )


      isym =  4     120 deg rotation - cryst. axis [0,0,-1]      

 cryst.   s( 4) = (     0          1          0      )
                  (    -1         -1          0      )
                  (     0          0          1      )

 cart.    s( 4) = ( -0.5000000  0.8660254  0.0000000 )
                  ( -0.8660254 -0.5000000  0.0000000 )
                  (  0.0000000  0.0000000  1.0000000 )


      isym =  5     180 deg rotation - cryst. axis [0,1,0]       

 cryst.   s( 5) = (    -1         -1          0      )
                  (     0          1          0      )
                  (     0          0         -1      )

 cart.    s( 5) = ( -0.5000000 -0.8660254  0.0000000 )
                  ( -0.8660254  0.5000000  0.0000000 )
                  (  0.0000000  0.0000000 -1.0000000 )


      isym =  6     180 deg rotation - cryst. axis [1,1,0]       

 cryst.   s( 6) = (     1          0          0      )
                  (    -1         -1          0      )
                  (     0          0         -1      )

 cart.    s( 6) = ( -0.5000000  0.8660254  0.0000000 )
                  (  0.8660254  0.5000000  0.0000000 )
                  (  0.0000000  0.0000000 -1.0000000 )


      isym =  7     inversion                                    

 cryst.   s( 7) = (    -1          0          0      )
                  (     0         -1          0      )
                  (     0          0         -1      )

 cart.    s( 7) = ( -1.0000000  0.0000000  0.0000000 )
                  (  0.0000000 -1.0000000  0.0000000 )
                  (  0.0000000  0.0000000 -1.0000000 )


      isym =  8     inv. 180 deg rotation - cart. axis [1,0,0]   

 cryst.   s( 8) = (     0         -1          0      )
                  (    -1          0          0      )
                  (     0          0          1      )

 cart.    s( 8) = ( -1.0000000  0.0000000  0.0000000 )
                  (  0.0000000  1.0000000  0.0000000 )
                  (  0.0000000  0.0000000  1.0000000 )


      isym =  9     inv. 120 deg rotation - cryst. axis [0,0,1]  

 cryst.   s( 9) = (     1          1          0      )
                  (    -1          0          0      )
                  (     0          0         -1      )

 cart.    s( 9) = (  0.5000000  0.8660254  0.0000000 )
                  ( -0.8660254  0.5000000  0.0000000 )
                  (  0.0000000  0.0000000 -1.0000000 )


      isym = 10     inv. 120 deg rotation - cryst. axis [0,0,-1] 

 cryst.   s(10) = (     0         -1          0      )
                  (     1          1          0      )
                  (     0          0         -1      )

 cart.    s(10) = (  0.5000000 -0.8660254  0.0000000 )
                  (  0.8660254  0.5000000  0.0000000 )
                  (  0.0000000  0.0000000 -1.0000000 )


      isym = 11     inv. 180 deg rotation - cryst. axis [0,1,0]  

 cryst.   s(11) = (     1          1          0      )
                  (     0         -1          0      )
                  (     0          0          1      )

 cart.    s(11) = (  0.5000000  0.8660254  0.0000000 )
                  (  0.8660254 -0.5000000  0.0000000 )
                  (  0.0000000  0.0000000  1.0000000 )


      isym = 12     inv. 180 deg rotation - cryst. axis [1,1,0]  

 cryst.   s(12) = (    -1          0          0      )
                  (     1          1          0      )
                  (     0          0          1      )

 cart.    s(12) = (  0.5000000 -0.8660254  0.0000000 )
                  ( -0.8660254 -0.5000000  0.0000000 )
                  (  0.0000000  0.0000000  1.0000000 )


   Cartesian axes

     site n.     atom                  positions (alat units)
         1           V   tau(   1) = (  -0.5000000   0.2886751  -0.3984485  )
         2           V   tau(   2) = (  -0.5000000  -0.2886751  -1.1630630  )
         3           C   tau(   3) = (   0.0000000   0.0000000   0.0000000  )

   Crystallographic axes

     site n.     atom                  positions (cryst. coord.)
         1           V   tau(   1) = (  0.3333333  0.6666667  0.2551685  )
         2           V   tau(   2) = (  0.6666667  0.3333333  0.7448315  )
         3           C   tau(   3) = ( -0.0000000  0.0000000  0.0000000  )

     number of k points=   595  Marzari-Vanderbilt smearing, width (Ry)=  0.0147
                       cart. coord. in units 2pi/alat
        k(    1) = (  -0.0769231   0.0000000  -0.0246310), wk =   0.0036413
        k(    2) = (  -0.0769231   0.0000000  -0.0738929), wk =   0.0036413
        k(    3) = (  -0.0769231   0.0000000  -0.1231548), wk =   0.0036413
        k(    4) = (  -0.0769231   0.0000000  -0.1724168), wk =   0.0036413
        k(    5) = (  -0.0769231   0.0000000  -0.2216787), wk =   0.0036413
        k(    6) = (  -0.0769231   0.0000000  -0.2709406), wk =   0.0036413
        k(    7) = (  -0.0769231   0.0000000   0.3202026), wk =   0.0018207
        k(    8) = (  -0.1538462   0.0444116  -0.0246310), wk =   0.0036413
        k(    9) = (  -0.1538462   0.0444116  -0.0738929), wk =   0.0036413
        k(   10) = (  -0.1538462   0.0444116  -0.1231548), wk =   0.0036413
        k(   11) = (  -0.1538462   0.0444116  -0.1724168), wk =   0.0036413
        k(   12) = (  -0.1538462   0.0444116  -0.2216787), wk =   0.0036413
        k(   13) = (  -0.1538462   0.0444116  -0.2709406), wk =   0.0036413
        k(   14) = (  -0.1538462   0.0444116   0.3202026), wk =   0.0036413
        k(   15) = (  -0.2307692   0.0888231  -0.0246310), wk =   0.0036413
        k(   16) = (  -0.2307692   0.0888231  -0.0738929), wk =   0.0036413
        k(   17) = (  -0.2307692   0.0888231  -0.1231548), wk =   0.0036413
        k(   18) = (  -0.2307692   0.0888231  -0.1724168), wk =   0.0036413
        k(   19) = (  -0.2307692   0.0888231  -0.2216787), wk =   0.0036413
        k(   20) = (  -0.2307692   0.0888231  -0.2709406), wk =   0.0036413
        k(   21) = (  -0.2307692   0.0888231   0.3202026), wk =   0.0036413
        k(   22) = (  -0.3076923   0.1332347  -0.0246310), wk =   0.0036413
        k(   23) = (  -0.3076923   0.1332347  -0.0738929), wk =   0.0036413
        k(   24) = (  -0.3076923   0.1332347  -0.1231548), wk =   0.0036413
        k(   25) = (  -0.3076923   0.1332347  -0.1724168), wk =   0.0036413
        k(   26) = (  -0.3076923   0.1332347  -0.2216787), wk =   0.0036413
        k(   27) = (  -0.3076923   0.1332347  -0.2709406), wk =   0.0036413
        k(   28) = (  -0.3076923   0.1332347   0.3202026), wk =   0.0036413
        k(   29) = (  -0.3846154   0.1776462  -0.0246310), wk =   0.0036413
        k(   30) = (  -0.3846154   0.1776462  -0.0738929), wk =   0.0036413
        k(   31) = (  -0.3846154   0.1776462  -0.1231548), wk =   0.0036413
        k(   32) = (  -0.3846154   0.1776462  -0.1724168), wk =   0.0036413
        k(   33) = (  -0.3846154   0.1776462  -0.2216787), wk =   0.0036413
        k(   34) = (  -0.3846154   0.1776462  -0.2709406), wk =   0.0036413
        k(   35) = (  -0.3846154   0.1776462   0.3202026), wk =   0.0036413
        k(   36) = (  -0.4615385   0.2220578  -0.0246310), wk =   0.0036413
        k(   37) = (  -0.4615385   0.2220578  -0.0738929), wk =   0.0036413
        k(   38) = (  -0.4615385   0.2220578  -0.1231548), wk =   0.0036413
        k(   39) = (  -0.4615385   0.2220578  -0.1724168), wk =   0.0036413
        k(   40) = (  -0.4615385   0.2220578  -0.2216787), wk =   0.0036413
        k(   41) = (  -0.4615385   0.2220578  -0.2709406), wk =   0.0036413
        k(   42) = (  -0.4615385   0.2220578   0.3202026), wk =   0.0036413
        k(   43) = (   0.4615385  -0.3108809  -0.0246310), wk =   0.0036413
        k(   44) = (   0.4615385  -0.3108809  -0.0738929), wk =   0.0036413
        k(   45) = (   0.4615385  -0.3108809  -0.1231548), wk =   0.0036413
        k(   46) = (   0.4615385  -0.3108809  -0.1724168), wk =   0.0036413
        k(   47) = (   0.4615385  -0.3108809  -0.2216787), wk =   0.0036413
        k(   48) = (   0.4615385  -0.3108809  -0.2709406), wk =   0.0036413
        k(   49) = (   0.4615385  -0.3108809   0.3202026), wk =   0.0036413
        k(   50) = (   0.3846154  -0.2664694  -0.0246310), wk =   0.0036413
        k(   51) = (   0.3846154  -0.2664694  -0.0738929), wk =   0.0036413
        k(   52) = (   0.3846154  -0.2664694  -0.1231548), wk =   0.0036413
        k(   53) = (   0.3846154  -0.2664694  -0.1724168), wk =   0.0036413
        k(   54) = (   0.3846154  -0.2664694  -0.2216787), wk =   0.0036413
        k(   55) = (   0.3846154  -0.2664694  -0.2709406), wk =   0.0036413
        k(   56) = (   0.3846154  -0.2664694   0.3202026), wk =   0.0036413
        k(   57) = (   0.3076923  -0.2220578  -0.0246310), wk =   0.0036413
        k(   58) = (   0.3076923  -0.2220578  -0.0738929), wk =   0.0036413
        k(   59) = (   0.3076923  -0.2220578  -0.1231548), wk =   0.0036413
        k(   60) = (   0.3076923  -0.2220578  -0.1724168), wk =   0.0036413
        k(   61) = (   0.3076923  -0.2220578  -0.2216787), wk =   0.0036413
        k(   62) = (   0.3076923  -0.2220578  -0.2709406), wk =   0.0036413
        k(   63) = (   0.3076923  -0.2220578   0.3202026), wk =   0.0036413
        k(   64) = (   0.2307692  -0.1776462  -0.0246310), wk =   0.0036413
        k(   65) = (   0.2307692  -0.1776462  -0.0738929), wk =   0.0036413
        k(   66) = (   0.2307692  -0.1776462  -0.1231548), wk =   0.0036413
        k(   67) = (   0.2307692  -0.1776462  -0.1724168), wk =   0.0036413
        k(   68) = (   0.2307692  -0.1776462  -0.2216787), wk =   0.0036413
        k(   69) = (   0.2307692  -0.1776462  -0.2709406), wk =   0.0036413
        k(   70) = (   0.2307692  -0.1776462   0.3202026), wk =   0.0036413
        k(   71) = (   0.1538462  -0.1332347  -0.0246310), wk =   0.0036413
        k(   72) = (   0.1538462  -0.1332347  -0.0738929), wk =   0.0036413
        k(   73) = (   0.1538462  -0.1332347  -0.1231548), wk =   0.0036413
        k(   74) = (   0.1538462  -0.1332347  -0.1724168), wk =   0.0036413
        k(   75) = (   0.1538462  -0.1332347  -0.2216787), wk =   0.0036413
        k(   76) = (   0.1538462  -0.1332347  -0.2709406), wk =   0.0036413
        k(   77) = (   0.1538462  -0.1332347   0.3202026), wk =   0.0036413
        k(   78) = (   0.0769231  -0.0888231  -0.0246310), wk =   0.0036413
        k(   79) = (   0.0769231  -0.0888231  -0.0738929), wk =   0.0036413
        k(   80) = (   0.0769231  -0.0888231  -0.1231548), wk =   0.0036413
        k(   81) = (   0.0769231  -0.0888231  -0.1724168), wk =   0.0036413
        k(   82) = (   0.0769231  -0.0888231  -0.2216787), wk =   0.0036413
        k(   83) = (   0.0769231  -0.0888231  -0.2709406), wk =   0.0036413
        k(   84) = (   0.0769231  -0.0888231   0.3202026), wk =   0.0036413
        k(   85) = (  -0.0000000  -0.0444116  -0.0246310), wk =   0.0018207
        k(   86) = (  -0.0000000  -0.0444116  -0.0738929), wk =   0.0018207
        k(   87) = (  -0.0000000  -0.0444116  -0.1231548), wk =   0.0018207
        k(   88) = (  -0.0000000  -0.0444116  -0.1724168), wk =   0.0018207
        k(   89) = (  -0.0000000  -0.0444116  -0.2216787), wk =   0.0018207
        k(   90) = (  -0.0000000  -0.0444116  -0.2709406), wk =   0.0018207
        k(   91) = (  -0.0000000  -0.0444116   0.3202026), wk =   0.0018207
        k(   92) = (  -0.2307692   0.0000000  -0.0246310), wk =   0.0036413
        k(   93) = (  -0.2307692   0.0000000  -0.0738929), wk =   0.0036413
        k(   94) = (  -0.2307692   0.0000000  -0.1231548), wk =   0.0036413
        k(   95) = (  -0.2307692   0.0000000  -0.1724168), wk =   0.0036413
        k(   96) = (  -0.2307692   0.0000000  -0.2216787), wk =   0.0036413
        k(   97) = (  -0.2307692   0.0000000  -0.2709406), wk =   0.0036413
        k(   98) = (  -0.2307692   0.0000000   0.3202026), wk =   0.0018207
        k(   99) = (  -0.3076923   0.0444116  -0.0246310), wk =   0.0036413
        k(  100) = (  -0.3076923   0.0444116  -0.0738929), wk =   0.0036413
        k(  101) = (  -0.3076923   0.0444116  -0.1231548), wk =   0.0036413
        k(  102) = (  -0.3076923   0.0444116  -0.1724168), wk =   0.0036413
        k(  103) = (  -0.3076923   0.0444116  -0.2216787), wk =   0.0036413
        k(  104) = (  -0.3076923   0.0444116  -0.2709406), wk =   0.0036413
        k(  105) = (  -0.3076923   0.0444116   0.3202026), wk =   0.0036413
        k(  106) = (  -0.3846154   0.0888231  -0.0246310), wk =   0.0036413
        k(  107) = (  -0.3846154   0.0888231  -0.0738929), wk =   0.0036413
        k(  108) = (  -0.3846154   0.0888231  -0.1231548), wk =   0.0036413
        k(  109) = (  -0.3846154   0.0888231  -0.1724168), wk =   0.0036413
        k(  110) = (  -0.3846154   0.0888231  -0.2216787), wk =   0.0036413
        k(  111) = (  -0.3846154   0.0888231  -0.2709406), wk =   0.0036413
        k(  112) = (  -0.3846154   0.0888231   0.3202026), wk =   0.0036413
        k(  113) = (  -0.4615385   0.1332347  -0.0246310), wk =   0.0036413
        k(  114) = (  -0.4615385   0.1332347  -0.0738929), wk =   0.0036413
        k(  115) = (  -0.4615385   0.1332347  -0.1231548), wk =   0.0036413
        k(  116) = (  -0.4615385   0.1332347  -0.1724168), wk =   0.0036413
        k(  117) = (  -0.4615385   0.1332347  -0.2216787), wk =   0.0036413
        k(  118) = (  -0.4615385   0.1332347  -0.2709406), wk =   0.0036413
        k(  119) = (  -0.4615385   0.1332347   0.3202026), wk =   0.0036413
        k(  120) = (  -0.5384615   0.1776462  -0.0246310), wk =   0.0036413
        k(  121) = (  -0.5384615   0.1776462  -0.0738929), wk =   0.0036413
        k(  122) = (  -0.5384615   0.1776462  -0.1231548), wk =   0.0036413
        k(  123) = (  -0.5384615   0.1776462  -0.1724168), wk =   0.0036413
        k(  124) = (  -0.5384615   0.1776462  -0.2216787), wk =   0.0036413
        k(  125) = (  -0.5384615   0.1776462  -0.2709406), wk =   0.0036413
        k(  126) = (  -0.5384615   0.1776462   0.3202026), wk =   0.0036413
        k(  127) = (   0.3846154  -0.3552925  -0.0246310), wk =   0.0036413
        k(  128) = (   0.3846154  -0.3552925  -0.0738929), wk =   0.0036413
        k(  129) = (   0.3846154  -0.3552925  -0.1231548), wk =   0.0036413
        k(  130) = (   0.3846154  -0.3552925  -0.1724168), wk =   0.0036413
        k(  131) = (   0.3846154  -0.3552925  -0.2216787), wk =   0.0036413
        k(  132) = (   0.3846154  -0.3552925  -0.2709406), wk =   0.0036413
        k(  133) = (   0.3846154  -0.3552925   0.3202026), wk =   0.0036413
        k(  134) = (   0.3076923  -0.3108809  -0.0246310), wk =   0.0036413
        k(  135) = (   0.3076923  -0.3108809  -0.0738929), wk =   0.0036413
        k(  136) = (   0.3076923  -0.3108809  -0.1231548), wk =   0.0036413
        k(  137) = (   0.3076923  -0.3108809  -0.1724168), wk =   0.0036413
        k(  138) = (   0.3076923  -0.3108809  -0.2216787), wk =   0.0036413
        k(  139) = (   0.3076923  -0.3108809  -0.2709406), wk =   0.0036413
        k(  140) = (   0.3076923  -0.3108809   0.3202026), wk =   0.0036413
        k(  141) = (   0.2307692  -0.2664694  -0.0246310), wk =   0.0036413
        k(  142) = (   0.2307692  -0.2664694  -0.0738929), wk =   0.0036413
        k(  143) = (   0.2307692  -0.2664694  -0.1231548), wk =   0.0036413
        k(  144) = (   0.2307692  -0.2664694  -0.1724168), wk =   0.0036413
        k(  145) = (   0.2307692  -0.2664694  -0.2216787), wk =   0.0036413
        k(  146) = (   0.2307692  -0.2664694  -0.2709406), wk =   0.0036413
        k(  147) = (   0.2307692  -0.2664694   0.3202026), wk =   0.0036413
        k(  148) = (   0.1538462  -0.2220578  -0.0246310), wk =   0.0036413
        k(  149) = (   0.1538462  -0.2220578  -0.0738929), wk =   0.0036413
        k(  150) = (   0.1538462  -0.2220578  -0.1231548), wk =   0.0036413
        k(  151) = (   0.1538462  -0.2220578  -0.1724168), wk =   0.0036413
        k(  152) = (   0.1538462  -0.2220578  -0.2216787), wk =   0.0036413
        k(  153) = (   0.1538462  -0.2220578  -0.2709406), wk =   0.0036413
        k(  154) = (   0.1538462  -0.2220578   0.3202026), wk =   0.0036413
        k(  155) = (   0.0769231  -0.1776462  -0.0246310), wk =   0.0036413
        k(  156) = (   0.0769231  -0.1776462  -0.0738929), wk =   0.0036413
        k(  157) = (   0.0769231  -0.1776462  -0.1231548), wk =   0.0036413
        k(  158) = (   0.0769231  -0.1776462  -0.1724168), wk =   0.0036413
        k(  159) = (   0.0769231  -0.1776462  -0.2216787), wk =   0.0036413
        k(  160) = (   0.0769231  -0.1776462  -0.2709406), wk =   0.0036413
        k(  161) = (   0.0769231  -0.1776462   0.3202026), wk =   0.0036413
        k(  162) = (   0.0000000  -0.1332347  -0.0246310), wk =   0.0018207
        k(  163) = (   0.0000000  -0.1332347  -0.0738929), wk =   0.0018207
        k(  164) = (   0.0000000  -0.1332347  -0.1231548), wk =   0.0018207
        k(  165) = (   0.0000000  -0.1332347  -0.1724168), wk =   0.0018207
        k(  166) = (   0.0000000  -0.1332347  -0.2216787), wk =   0.0018207
        k(  167) = (   0.0000000  -0.1332347  -0.2709406), wk =   0.0018207
        k(  168) = (   0.0000000  -0.1332347   0.3202026), wk =   0.0018207
        k(  169) = (  -0.3846154   0.0000000  -0.0246310), wk =   0.0036413
        k(  170) = (  -0.3846154   0.0000000  -0.0738929), wk =   0.0036413
        k(  171) = (  -0.3846154   0.0000000  -0.1231548), wk =   0.0036413
        k(  172) = (  -0.3846154   0.0000000  -0.1724168), wk =   0.0036413
        k(  173) = (  -0.3846154   0.0000000  -0.2216787), wk =   0.0036413
        k(  174) = (  -0.3846154   0.0000000  -0.2709406), wk =   0.0036413
        k(  175) = (  -0.3846154   0.0000000   0.3202026), wk =   0.0018207
        k(  176) = (  -0.4615385   0.0444116  -0.0246310), wk =   0.0036413
        k(  177) = (  -0.4615385   0.0444116  -0.0738929), wk =   0.0036413
        k(  178) = (  -0.4615385   0.0444116  -0.1231548), wk =   0.0036413
        k(  179) = (  -0.4615385   0.0444116  -0.1724168), wk =   0.0036413
        k(  180) = (  -0.4615385   0.0444116  -0.2216787), wk =   0.0036413
        k(  181) = (  -0.4615385   0.0444116  -0.2709406), wk =   0.0036413
        k(  182) = (  -0.4615385   0.0444116   0.3202026), wk =   0.0036413
        k(  183) = (  -0.5384615   0.0888231  -0.0246310), wk =   0.0036413
        k(  184) = (  -0.5384615   0.0888231  -0.0738929), wk =   0.0036413
        k(  185) = (  -0.5384615   0.0888231  -0.1231548), wk =   0.0036413
        k(  186) = (  -0.5384615   0.0888231  -0.1724168), wk =   0.0036413
        k(  187) = (  -0.5384615   0.0888231  -0.2216787), wk =   0.0036413
        k(  188) = (  -0.5384615   0.0888231  -0.2709406), wk =   0.0036413
        k(  189) = (  -0.5384615   0.0888231   0.3202026), wk =   0.0036413
        k(  190) = (  -0.6153846   0.1332347  -0.0246310), wk =   0.0036413
        k(  191) = (  -0.6153846   0.1332347  -0.0738929), wk =   0.0036413
        k(  192) = (  -0.6153846   0.1332347  -0.1231548), wk =   0.0036413
        k(  193) = (  -0.6153846   0.1332347  -0.1724168), wk =   0.0036413
        k(  194) = (  -0.6153846   0.1332347  -0.2216787), wk =   0.0036413
        k(  195) = (  -0.6153846   0.1332347  -0.2709406), wk =   0.0036413
        k(  196) = (  -0.6153846   0.1332347   0.3202026), wk =   0.0036413
        k(  197) = (   0.3076923  -0.3997040  -0.0246310), wk =   0.0036413
        k(  198) = (   0.3076923  -0.3997040  -0.0738929), wk =   0.0036413
        k(  199) = (   0.3076923  -0.3997040  -0.1231548), wk =   0.0036413
        k(  200) = (   0.3076923  -0.3997040  -0.1724168), wk =   0.0036413
        k(  201) = (   0.3076923  -0.3997040  -0.2216787), wk =   0.0036413
        k(  202) = (   0.3076923  -0.3997040  -0.2709406), wk =   0.0036413
        k(  203) = (   0.3076923  -0.3997040   0.3202026), wk =   0.0036413
        k(  204) = (   0.2307692  -0.3552925  -0.0246310), wk =   0.0036413
        k(  205) = (   0.2307692  -0.3552925  -0.0738929), wk =   0.0036413
        k(  206) = (   0.2307692  -0.3552925  -0.1231548), wk =   0.0036413
        k(  207) = (   0.2307692  -0.3552925  -0.1724168), wk =   0.0036413
        k(  208) = (   0.2307692  -0.3552925  -0.2216787), wk =   0.0036413
        k(  209) = (   0.2307692  -0.3552925  -0.2709406), wk =   0.0036413
        k(  210) = (   0.2307692  -0.3552925   0.3202026), wk =   0.0036413
        k(  211) = (   0.1538462  -0.3108809  -0.0246310), wk =   0.0036413
        k(  212) = (   0.1538462  -0.3108809  -0.0738929), wk =   0.0036413
        k(  213) = (   0.1538462  -0.3108809  -0.1231548), wk =   0.0036413
        k(  214) = (   0.1538462  -0.3108809  -0.1724168), wk =   0.0036413
        k(  215) = (   0.1538462  -0.3108809  -0.2216787), wk =   0.0036413
        k(  216) = (   0.1538462  -0.3108809  -0.2709406), wk =   0.0036413
        k(  217) = (   0.1538462  -0.3108809   0.3202026), wk =   0.0036413
        k(  218) = (   0.0769231  -0.2664694  -0.0246310), wk =   0.0036413
        k(  219) = (   0.0769231  -0.2664694  -0.0738929), wk =   0.0036413
        k(  220) = (   0.0769231  -0.2664694  -0.1231548), wk =   0.0036413
        k(  221) = (   0.0769231  -0.2664694  -0.1724168), wk =   0.0036413
        k(  222) = (   0.0769231  -0.2664694  -0.2216787), wk =   0.0036413
        k(  223) = (   0.0769231  -0.2664694  -0.2709406), wk =   0.0036413
        k(  224) = (   0.0769231  -0.2664694   0.3202026), wk =   0.0036413
        k(  225) = (  -0.0000000  -0.2220578  -0.0246310), wk =   0.0018207
        k(  226) = (  -0.0000000  -0.2220578  -0.0738929), wk =   0.0018207
        k(  227) = (  -0.0000000  -0.2220578  -0.1231548), wk =   0.0018207
        k(  228) = (  -0.0000000  -0.2220578  -0.1724168), wk =   0.0018207
        k(  229) = (  -0.0000000  -0.2220578  -0.2216787), wk =   0.0018207
        k(  230) = (  -0.0000000  -0.2220578  -0.2709406), wk =   0.0018207
        k(  231) = (  -0.0000000  -0.2220578   0.3202026), wk =   0.0018207
        k(  232) = (  -0.5384615   0.0000000  -0.0246310), wk =   0.0036413
        k(  233) = (  -0.5384615   0.0000000  -0.0738929), wk =   0.0036413
        k(  234) = (  -0.5384615   0.0000000  -0.1231548), wk =   0.0036413
        k(  235) = (  -0.5384615   0.0000000  -0.1724168), wk =   0.0036413
        k(  236) = (  -0.5384615   0.0000000  -0.2216787), wk =   0.0036413
        k(  237) = (  -0.5384615   0.0000000  -0.2709406), wk =   0.0036413
        k(  238) = (  -0.5384615   0.0000000   0.3202026), wk =   0.0018207
        k(  239) = (  -0.6153846   0.0444116  -0.0246310), wk =   0.0036413
        k(  240) = (  -0.6153846   0.0444116  -0.0738929), wk =   0.0036413
        k(  241) = (  -0.6153846   0.0444116  -0.1231548), wk =   0.0036413
        k(  242) = (  -0.6153846   0.0444116  -0.1724168), wk =   0.0036413
        k(  243) = (  -0.6153846   0.0444116  -0.2216787), wk =   0.0036413
        k(  244) = (  -0.6153846   0.0444116  -0.2709406), wk =   0.0036413
        k(  245) = (  -0.6153846   0.0444116   0.3202026), wk =   0.0036413
        k(  246) = (  -0.6923077   0.0888231  -0.0246310), wk =   0.0036413
        k(  247) = (  -0.6923077   0.0888231  -0.0738929), wk =   0.0036413
        k(  248) = (  -0.6923077   0.0888231  -0.1231548), wk =   0.0036413
        k(  249) = (  -0.6923077   0.0888231  -0.1724168), wk =   0.0036413
        k(  250) = (  -0.6923077   0.0888231  -0.2216787), wk =   0.0036413
        k(  251) = (  -0.6923077   0.0888231  -0.2709406), wk =   0.0036413
        k(  252) = (  -0.6923077   0.0888231   0.3202026), wk =   0.0036413
        k(  253) = (   0.2307692  -0.4441156  -0.0246310), wk =   0.0036413
        k(  254) = (   0.2307692  -0.4441156  -0.0738929), wk =   0.0036413
        k(  255) = (   0.2307692  -0.4441156  -0.1231548), wk =   0.0036413
        k(  256) = (   0.2307692  -0.4441156  -0.1724168), wk =   0.0036413
        k(  257) = (   0.2307692  -0.4441156  -0.2216787), wk =   0.0036413
        k(  258) = (   0.2307692  -0.4441156  -0.2709406), wk =   0.0036413
        k(  259) = (   0.2307692  -0.4441156   0.3202026), wk =   0.0036413
        k(  260) = (   0.1538462  -0.3997040  -0.0246310), wk =   0.0036413
        k(  261) = (   0.1538462  -0.3997040  -0.0738929), wk =   0.0036413
        k(  262) = (   0.1538462  -0.3997040  -0.1231548), wk =   0.0036413
        k(  263) = (   0.1538462  -0.3997040  -0.1724168), wk =   0.0036413
        k(  264) = (   0.1538462  -0.3997040  -0.2216787), wk =   0.0036413
        k(  265) = (   0.1538462  -0.3997040  -0.2709406), wk =   0.0036413
        k(  266) = (   0.1538462  -0.3997040   0.3202026), wk =   0.0036413
        k(  267) = (   0.0769231  -0.3552925  -0.0246310), wk =   0.0036413
        k(  268) = (   0.0769231  -0.3552925  -0.0738929), wk =   0.0036413
        k(  269) = (   0.0769231  -0.3552925  -0.1231548), wk =   0.0036413
        k(  270) = (   0.0769231  -0.3552925  -0.1724168), wk =   0.0036413
        k(  271) = (   0.0769231  -0.3552925  -0.2216787), wk =   0.0036413
        k(  272) = (   0.0769231  -0.3552925  -0.2709406), wk =   0.0036413
        k(  273) = (   0.0769231  -0.3552925   0.3202026), wk =   0.0036413
        k(  274) = (   0.0000000  -0.3108809  -0.0246310), wk =   0.0018207
        k(  275) = (   0.0000000  -0.3108809  -0.0738929), wk =   0.0018207
        k(  276) = (   0.0000000  -0.3108809  -0.1231548), wk =   0.0018207
        k(  277) = (   0.0000000  -0.3108809  -0.1724168), wk =   0.0018207
        k(  278) = (   0.0000000  -0.3108809  -0.2216787), wk =   0.0018207
        k(  279) = (   0.0000000  -0.3108809  -0.2709406), wk =   0.0018207
        k(  280) = (   0.0000000  -0.3108809   0.3202026), wk =   0.0018207
        k(  281) = (  -0.6923077   0.0000000  -0.0246310), wk =   0.0036413
        k(  282) = (  -0.6923077   0.0000000  -0.0738929), wk =   0.0036413
        k(  283) = (  -0.6923077   0.0000000  -0.1231548), wk =   0.0036413
        k(  284) = (  -0.6923077   0.0000000  -0.1724168), wk =   0.0036413
        k(  285) = (  -0.6923077   0.0000000  -0.2216787), wk =   0.0036413
        k(  286) = (  -0.6923077   0.0000000  -0.2709406), wk =   0.0036413
        k(  287) = (  -0.6923077   0.0000000   0.3202026), wk =   0.0018207
        k(  288) = (  -0.7692308   0.0444116  -0.0246310), wk =   0.0036413
        k(  289) = (  -0.7692308   0.0444116  -0.0738929), wk =   0.0036413
        k(  290) = (  -0.7692308   0.0444116  -0.1231548), wk =   0.0036413
        k(  291) = (  -0.7692308   0.0444116  -0.1724168), wk =   0.0036413
        k(  292) = (  -0.7692308   0.0444116  -0.2216787), wk =   0.0036413
        k(  293) = (  -0.7692308   0.0444116  -0.2709406), wk =   0.0036413
        k(  294) = (  -0.7692308   0.0444116   0.3202026), wk =   0.0036413
        k(  295) = (   0.1538462  -0.4885272  -0.0246310), wk =   0.0036413
        k(  296) = (   0.1538462  -0.4885272  -0.0738929), wk =   0.0036413
        k(  297) = (   0.1538462  -0.4885272  -0.1231548), wk =   0.0036413
        k(  298) = (   0.1538462  -0.4885272  -0.1724168), wk =   0.0036413
        k(  299) = (   0.1538462  -0.4885272  -0.2216787), wk =   0.0036413
        k(  300) = (   0.1538462  -0.4885272  -0.2709406), wk =   0.0036413
        k(  301) = (   0.1538462  -0.4885272   0.3202026), wk =   0.0036413
        k(  302) = (   0.0769231  -0.4441156  -0.0246310), wk =   0.0036413
        k(  303) = (   0.0769231  -0.4441156  -0.0738929), wk =   0.0036413
        k(  304) = (   0.0769231  -0.4441156  -0.1231548), wk =   0.0036413
        k(  305) = (   0.0769231  -0.4441156  -0.1724168), wk =   0.0036413
        k(  306) = (   0.0769231  -0.4441156  -0.2216787), wk =   0.0036413
        k(  307) = (   0.0769231  -0.4441156  -0.2709406), wk =   0.0036413
        k(  308) = (   0.0769231  -0.4441156   0.3202026), wk =   0.0036413
        k(  309) = (   0.0000000  -0.3997040  -0.0246310), wk =   0.0018207
        k(  310) = (   0.0000000  -0.3997040  -0.0738929), wk =   0.0018207
        k(  311) = (   0.0000000  -0.3997040  -0.1231548), wk =   0.0018207
        k(  312) = (   0.0000000  -0.3997040  -0.1724168), wk =   0.0018207
        k(  313) = (   0.0000000  -0.3997040  -0.2216787), wk =   0.0018207
        k(  314) = (   0.0000000  -0.3997040  -0.2709406), wk =   0.0018207
        k(  315) = (   0.0000000  -0.3997040   0.3202026), wk =   0.0018207
        k(  316) = (  -0.8461538   0.0000000  -0.0246310), wk =   0.0036413
        k(  317) = (  -0.8461538   0.0000000  -0.0738929), wk =   0.0036413
        k(  318) = (  -0.8461538   0.0000000  -0.1231548), wk =   0.0036413
        k(  319) = (  -0.8461538   0.0000000  -0.1724168), wk =   0.0036413
        k(  320) = (  -0.8461538   0.0000000  -0.2216787), wk =   0.0036413
        k(  321) = (  -0.8461538   0.0000000  -0.2709406), wk =   0.0036413
        k(  322) = (  -0.8461538   0.0000000   0.3202026), wk =   0.0018207
        k(  323) = (   0.0769231  -0.5329387  -0.0246310), wk =   0.0036413
        k(  324) = (   0.0769231  -0.5329387  -0.0738929), wk =   0.0036413
        k(  325) = (   0.0769231  -0.5329387  -0.1231548), wk =   0.0036413
        k(  326) = (   0.0769231  -0.5329387  -0.1724168), wk =   0.0036413
        k(  327) = (   0.0769231  -0.5329387  -0.2216787), wk =   0.0036413
        k(  328) = (   0.0769231  -0.5329387  -0.2709406), wk =   0.0036413
        k(  329) = (   0.0769231  -0.5329387   0.3202026), wk =   0.0036413
        k(  330) = (   0.0000000  -0.4885272  -0.0246310), wk =   0.0018207
        k(  331) = (   0.0000000  -0.4885272  -0.0738929), wk =   0.0018207
        k(  332) = (   0.0000000  -0.4885272  -0.1231548), wk =   0.0018207
        k(  333) = (   0.0000000  -0.4885272  -0.1724168), wk =   0.0018207
        k(  334) = (   0.0000000  -0.4885272  -0.2216787), wk =   0.0018207
        k(  335) = (   0.0000000  -0.4885272  -0.2709406), wk =   0.0018207
        k(  336) = (   0.0000000  -0.4885272   0.3202026), wk =   0.0018207
        k(  337) = (   1.0000000   0.0000000  -0.0246310), wk =   0.0018207
        k(  338) = (   1.0000000   0.0000000  -0.0738929), wk =   0.0018207
        k(  339) = (   1.0000000   0.0000000  -0.1231548), wk =   0.0018207
        k(  340) = (   1.0000000   0.0000000  -0.1724168), wk =   0.0018207
        k(  341) = (   1.0000000   0.0000000  -0.2216787), wk =   0.0018207
        k(  342) = (   1.0000000   0.0000000  -0.2709406), wk =   0.0018207
        k(  343) = (   1.0000000   0.0000000   0.3202026), wk =   0.0009103
        k(  344) = (   0.1538462   0.0444116   0.0246310), wk =   0.0036413
        k(  345) = (   0.1538462   0.0444116   0.0738929), wk =   0.0036413
        k(  346) = (   0.1538462   0.0444116   0.1231548), wk =   0.0036413
        k(  347) = (   0.1538462   0.0444116   0.1724168), wk =   0.0036413
        k(  348) = (   0.1538462   0.0444116   0.2216787), wk =   0.0036413
        k(  349) = (   0.1538462   0.0444116   0.2709406), wk =   0.0036413
        k(  350) = (   0.2307692   0.0888231   0.0246310), wk =   0.0036413
        k(  351) = (   0.2307692   0.0888231   0.0738929), wk =   0.0036413
        k(  352) = (   0.2307692   0.0888231   0.1231548), wk =   0.0036413
        k(  353) = (   0.2307692   0.0888231   0.1724168), wk =   0.0036413
        k(  354) = (   0.2307692   0.0888231   0.2216787), wk =   0.0036413
        k(  355) = (   0.2307692   0.0888231   0.2709406), wk =   0.0036413
        k(  356) = (   0.3076923   0.1332347   0.0246310), wk =   0.0036413
        k(  357) = (   0.3076923   0.1332347   0.0738929), wk =   0.0036413
        k(  358) = (   0.3076923   0.1332347   0.1231548), wk =   0.0036413
        k(  359) = (   0.3076923   0.1332347   0.1724168), wk =   0.0036413
        k(  360) = (   0.3076923   0.1332347   0.2216787), wk =   0.0036413
        k(  361) = (   0.3076923   0.1332347   0.2709406), wk =   0.0036413
        k(  362) = (   0.3846154   0.1776462   0.0246310), wk =   0.0036413
        k(  363) = (   0.3846154   0.1776462   0.0738929), wk =   0.0036413
        k(  364) = (   0.3846154   0.1776462   0.1231548), wk =   0.0036413
        k(  365) = (   0.3846154   0.1776462   0.1724168), wk =   0.0036413
        k(  366) = (   0.3846154   0.1776462   0.2216787), wk =   0.0036413
        k(  367) = (   0.3846154   0.1776462   0.2709406), wk =   0.0036413
        k(  368) = (   0.4615385   0.2220578   0.0246310), wk =   0.0036413
        k(  369) = (   0.4615385   0.2220578   0.0738929), wk =   0.0036413
        k(  370) = (   0.4615385   0.2220578   0.1231548), wk =   0.0036413
        k(  371) = (   0.4615385   0.2220578   0.1724168), wk =   0.0036413
        k(  372) = (   0.4615385   0.2220578   0.2216787), wk =   0.0036413
        k(  373) = (   0.4615385   0.2220578   0.2709406), wk =   0.0036413
        k(  374) = (  -0.4615385  -0.3108809   0.0246310), wk =   0.0036413
        k(  375) = (  -0.4615385  -0.3108809   0.0738929), wk =   0.0036413
        k(  376) = (  -0.4615385  -0.3108809   0.1231548), wk =   0.0036413
        k(  377) = (  -0.4615385  -0.3108809   0.1724168), wk =   0.0036413
        k(  378) = (  -0.4615385  -0.3108809   0.2216787), wk =   0.0036413
        k(  379) = (  -0.4615385  -0.3108809   0.2709406), wk =   0.0036413
        k(  380) = (  -0.3846154  -0.2664694   0.0246310), wk =   0.0036413
        k(  381) = (  -0.3846154  -0.2664694   0.0738929), wk =   0.0036413
        k(  382) = (  -0.3846154  -0.2664694   0.1231548), wk =   0.0036413
        k(  383) = (  -0.3846154  -0.2664694   0.1724168), wk =   0.0036413
        k(  384) = (  -0.3846154  -0.2664694   0.2216787), wk =   0.0036413
        k(  385) = (  -0.3846154  -0.2664694   0.2709406), wk =   0.0036413
        k(  386) = (  -0.3076923  -0.2220578   0.0246310), wk =   0.0036413
        k(  387) = (  -0.3076923  -0.2220578   0.0738929), wk =   0.0036413
        k(  388) = (  -0.3076923  -0.2220578   0.1231548), wk =   0.0036413
        k(  389) = (  -0.3076923  -0.2220578   0.1724168), wk =   0.0036413
        k(  390) = (  -0.3076923  -0.2220578   0.2216787), wk =   0.0036413
        k(  391) = (  -0.3076923  -0.2220578   0.2709406), wk =   0.0036413
        k(  392) = (  -0.2307692  -0.1776462   0.0246310), wk =   0.0036413
        k(  393) = (  -0.2307692  -0.1776462   0.0738929), wk =   0.0036413
        k(  394) = (  -0.2307692  -0.1776462   0.1231548), wk =   0.0036413
        k(  395) = (  -0.2307692  -0.1776462   0.1724168), wk =   0.0036413
        k(  396) = (  -0.2307692  -0.1776462   0.2216787), wk =   0.0036413
        k(  397) = (  -0.2307692  -0.1776462   0.2709406), wk =   0.0036413
        k(  398) = (  -0.1538462  -0.1332347   0.0246310), wk =   0.0036413
        k(  399) = (  -0.1538462  -0.1332347   0.0738929), wk =   0.0036413
        k(  400) = (  -0.1538462  -0.1332347   0.1231548), wk =   0.0036413
        k(  401) = (  -0.1538462  -0.1332347   0.1724168), wk =   0.0036413
        k(  402) = (  -0.1538462  -0.1332347   0.2216787), wk =   0.0036413
        k(  403) = (  -0.1538462  -0.1332347   0.2709406), wk =   0.0036413
        k(  404) = (  -0.0769231  -0.0888231   0.0246310), wk =   0.0036413
        k(  405) = (  -0.0769231  -0.0888231   0.0738929), wk =   0.0036413
        k(  406) = (  -0.0769231  -0.0888231   0.1231548), wk =   0.0036413
        k(  407) = (  -0.0769231  -0.0888231   0.1724168), wk =   0.0036413
        k(  408) = (  -0.0769231  -0.0888231   0.2216787), wk =   0.0036413
        k(  409) = (  -0.0769231  -0.0888231   0.2709406), wk =   0.0036413
        k(  410) = (   0.0000000  -0.0444116   0.0246310), wk =   0.0018207
        k(  411) = (   0.0000000  -0.0444116   0.0738929), wk =   0.0018207
        k(  412) = (   0.0000000  -0.0444116   0.1231548), wk =   0.0018207
        k(  413) = (   0.0000000  -0.0444116   0.1724168), wk =   0.0018207
        k(  414) = (   0.0000000  -0.0444116   0.2216787), wk =   0.0018207
        k(  415) = (   0.0000000  -0.0444116   0.2709406), wk =   0.0018207
        k(  416) = (   0.3076923   0.0444116   0.0246310), wk =   0.0036413
        k(  417) = (   0.3076923   0.0444116   0.0738929), wk =   0.0036413
        k(  418) = (   0.3076923   0.0444116   0.1231548), wk =   0.0036413
        k(  419) = (   0.3076923   0.0444116   0.1724168), wk =   0.0036413
        k(  420) = (   0.3076923   0.0444116   0.2216787), wk =   0.0036413
        k(  421) = (   0.3076923   0.0444116   0.2709406), wk =   0.0036413
        k(  422) = (   0.3846154   0.0888231   0.0246310), wk =   0.0036413
        k(  423) = (   0.3846154   0.0888231   0.0738929), wk =   0.0036413
        k(  424) = (   0.3846154   0.0888231   0.1231548), wk =   0.0036413
        k(  425) = (   0.3846154   0.0888231   0.1724168), wk =   0.0036413
        k(  426) = (   0.3846154   0.0888231   0.2216787), wk =   0.0036413
        k(  427) = (   0.3846154   0.0888231   0.2709406), wk =   0.0036413
        k(  428) = (   0.4615385   0.1332347   0.0246310), wk =   0.0036413
        k(  429) = (   0.4615385   0.1332347   0.0738929), wk =   0.0036413
        k(  430) = (   0.4615385   0.1332347   0.1231548), wk =   0.0036413
        k(  431) = (   0.4615385   0.1332347   0.1724168), wk =   0.0036413
        k(  432) = (   0.4615385   0.1332347   0.2216787), wk =   0.0036413
        k(  433) = (   0.4615385   0.1332347   0.2709406), wk =   0.0036413
        k(  434) = (   0.5384615   0.1776462   0.0246310), wk =   0.0036413
        k(  435) = (   0.5384615   0.1776462   0.0738929), wk =   0.0036413
        k(  436) = (   0.5384615   0.1776462   0.1231548), wk =   0.0036413
        k(  437) = (   0.5384615   0.1776462   0.1724168), wk =   0.0036413
        k(  438) = (   0.5384615   0.1776462   0.2216787), wk =   0.0036413
        k(  439) = (   0.5384615   0.1776462   0.2709406), wk =   0.0036413
        k(  440) = (  -0.3846154  -0.3552925   0.0246310), wk =   0.0036413
        k(  441) = (  -0.3846154  -0.3552925   0.0738929), wk =   0.0036413
        k(  442) = (  -0.3846154  -0.3552925   0.1231548), wk =   0.0036413
        k(  443) = (  -0.3846154  -0.3552925   0.1724168), wk =   0.0036413
        k(  444) = (  -0.3846154  -0.3552925   0.2216787), wk =   0.0036413
        k(  445) = (  -0.3846154  -0.3552925   0.2709406), wk =   0.0036413
        k(  446) = (  -0.3076923  -0.3108809   0.0246310), wk =   0.0036413
        k(  447) = (  -0.3076923  -0.3108809   0.0738929), wk =   0.0036413
        k(  448) = (  -0.3076923  -0.3108809   0.1231548), wk =   0.0036413
        k(  449) = (  -0.3076923  -0.3108809   0.1724168), wk =   0.0036413
        k(  450) = (  -0.3076923  -0.3108809   0.2216787), wk =   0.0036413
        k(  451) = (  -0.3076923  -0.3108809   0.2709406), wk =   0.0036413
        k(  452) = (  -0.2307692  -0.2664694   0.0246310), wk =   0.0036413
        k(  453) = (  -0.2307692  -0.2664694   0.0738929), wk =   0.0036413
        k(  454) = (  -0.2307692  -0.2664694   0.1231548), wk =   0.0036413
        k(  455) = (  -0.2307692  -0.2664694   0.1724168), wk =   0.0036413
        k(  456) = (  -0.2307692  -0.2664694   0.2216787), wk =   0.0036413
        k(  457) = (  -0.2307692  -0.2664694   0.2709406), wk =   0.0036413
        k(  458) = (  -0.1538462  -0.2220578   0.0246310), wk =   0.0036413
        k(  459) = (  -0.1538462  -0.2220578   0.0738929), wk =   0.0036413
        k(  460) = (  -0.1538462  -0.2220578   0.1231548), wk =   0.0036413
        k(  461) = (  -0.1538462  -0.2220578   0.1724168), wk =   0.0036413
        k(  462) = (  -0.1538462  -0.2220578   0.2216787), wk =   0.0036413
        k(  463) = (  -0.1538462  -0.2220578   0.2709406), wk =   0.0036413
        k(  464) = (  -0.0769231  -0.1776462   0.0246310), wk =   0.0036413
        k(  465) = (  -0.0769231  -0.1776462   0.0738929), wk =   0.0036413
        k(  466) = (  -0.0769231  -0.1776462   0.1231548), wk =   0.0036413
        k(  467) = (  -0.0769231  -0.1776462   0.1724168), wk =   0.0036413
        k(  468) = (  -0.0769231  -0.1776462   0.2216787), wk =   0.0036413
        k(  469) = (  -0.0769231  -0.1776462   0.2709406), wk =   0.0036413
        k(  470) = (  -0.0000000  -0.1332347   0.0246310), wk =   0.0018207
        k(  471) = (  -0.0000000  -0.1332347   0.0738929), wk =   0.0018207
        k(  472) = (  -0.0000000  -0.1332347   0.1231548), wk =   0.0018207
        k(  473) = (  -0.0000000  -0.1332347   0.1724168), wk =   0.0018207
        k(  474) = (  -0.0000000  -0.1332347   0.2216787), wk =   0.0018207
        k(  475) = (  -0.0000000  -0.1332347   0.2709406), wk =   0.0018207
        k(  476) = (   0.4615385   0.0444116   0.0246310), wk =   0.0036413
        k(  477) = (   0.4615385   0.0444116   0.0738929), wk =   0.0036413
        k(  478) = (   0.4615385   0.0444116   0.1231548), wk =   0.0036413
        k(  479) = (   0.4615385   0.0444116   0.1724168), wk =   0.0036413
        k(  480) = (   0.4615385   0.0444116   0.2216787), wk =   0.0036413
        k(  481) = (   0.4615385   0.0444116   0.2709406), wk =   0.0036413
        k(  482) = (   0.5384615   0.0888231   0.0246310), wk =   0.0036413
        k(  483) = (   0.5384615   0.0888231   0.0738929), wk =   0.0036413
        k(  484) = (   0.5384615   0.0888231   0.1231548), wk =   0.0036413
        k(  485) = (   0.5384615   0.0888231   0.1724168), wk =   0.0036413
        k(  486) = (   0.5384615   0.0888231   0.2216787), wk =   0.0036413
        k(  487) = (   0.5384615   0.0888231   0.2709406), wk =   0.0036413
        k(  488) = (   0.6153846   0.1332347   0.0246310), wk =   0.0036413
        k(  489) = (   0.6153846   0.1332347   0.0738929), wk =   0.0036413
        k(  490) = (   0.6153846   0.1332347   0.1231548), wk =   0.0036413
        k(  491) = (   0.6153846   0.1332347   0.1724168), wk =   0.0036413
        k(  492) = (   0.6153846   0.1332347   0.2216787), wk =   0.0036413
        k(  493) = (   0.6153846   0.1332347   0.2709406), wk =   0.0036413
        k(  494) = (  -0.3076923  -0.3997040   0.0246310), wk =   0.0036413
        k(  495) = (  -0.3076923  -0.3997040   0.0738929), wk =   0.0036413
        k(  496) = (  -0.3076923  -0.3997040   0.1231548), wk =   0.0036413
        k(  497) = (  -0.3076923  -0.3997040   0.1724168), wk =   0.0036413
        k(  498) = (  -0.3076923  -0.3997040   0.2216787), wk =   0.0036413
        k(  499) = (  -0.3076923  -0.3997040   0.2709406), wk =   0.0036413
        k(  500) = (  -0.2307692  -0.3552925   0.0246310), wk =   0.0036413
        k(  501) = (  -0.2307692  -0.3552925   0.0738929), wk =   0.0036413
        k(  502) = (  -0.2307692  -0.3552925   0.1231548), wk =   0.0036413
        k(  503) = (  -0.2307692  -0.3552925   0.1724168), wk =   0.0036413
        k(  504) = (  -0.2307692  -0.3552925   0.2216787), wk =   0.0036413
        k(  505) = (  -0.2307692  -0.3552925   0.2709406), wk =   0.0036413
        k(  506) = (  -0.1538462  -0.3108809   0.0246310), wk =   0.0036413
        k(  507) = (  -0.1538462  -0.3108809   0.0738929), wk =   0.0036413
        k(  508) = (  -0.1538462  -0.3108809   0.1231548), wk =   0.0036413
        k(  509) = (  -0.1538462  -0.3108809   0.1724168), wk =   0.0036413
        k(  510) = (  -0.1538462  -0.3108809   0.2216787), wk =   0.0036413
        k(  511) = (  -0.1538462  -0.3108809   0.2709406), wk =   0.0036413
        k(  512) = (  -0.0769231  -0.2664694   0.0246310), wk =   0.0036413
        k(  513) = (  -0.0769231  -0.2664694   0.0738929), wk =   0.0036413
        k(  514) = (  -0.0769231  -0.2664694   0.1231548), wk =   0.0036413
        k(  515) = (  -0.0769231  -0.2664694   0.1724168), wk =   0.0036413
        k(  516) = (  -0.0769231  -0.2664694   0.2216787), wk =   0.0036413
        k(  517) = (  -0.0769231  -0.2664694   0.2709406), wk =   0.0036413
        k(  518) = (   0.0000000  -0.2220578   0.0246310), wk =   0.0018207
        k(  519) = (   0.0000000  -0.2220578   0.0738929), wk =   0.0018207
        k(  520) = (   0.0000000  -0.2220578   0.1231548), wk =   0.0018207
        k(  521) = (   0.0000000  -0.2220578   0.1724168), wk =   0.0018207
        k(  522) = (   0.0000000  -0.2220578   0.2216787), wk =   0.0018207
        k(  523) = (   0.0000000  -0.2220578   0.2709406), wk =   0.0018207
        k(  524) = (   0.6153846   0.0444116   0.0246310), wk =   0.0036413
        k(  525) = (   0.6153846   0.0444116   0.0738929), wk =   0.0036413
        k(  526) = (   0.6153846   0.0444116   0.1231548), wk =   0.0036413
        k(  527) = (   0.6153846   0.0444116   0.1724168), wk =   0.0036413
        k(  528) = (   0.6153846   0.0444116   0.2216787), wk =   0.0036413
        k(  529) = (   0.6153846   0.0444116   0.2709406), wk =   0.0036413
        k(  530) = (   0.6923077   0.0888231   0.0246310), wk =   0.0036413
        k(  531) = (   0.6923077   0.0888231   0.0738929), wk =   0.0036413
        k(  532) = (   0.6923077   0.0888231   0.1231548), wk =   0.0036413
        k(  533) = (   0.6923077   0.0888231   0.1724168), wk =   0.0036413
        k(  534) = (   0.6923077   0.0888231   0.2216787), wk =   0.0036413
        k(  535) = (   0.6923077   0.0888231   0.2709406), wk =   0.0036413
        k(  536) = (  -0.2307692  -0.4441156   0.0246310), wk =   0.0036413
        k(  537) = (  -0.2307692  -0.4441156   0.0738929), wk =   0.0036413
        k(  538) = (  -0.2307692  -0.4441156   0.1231548), wk =   0.0036413
        k(  539) = (  -0.2307692  -0.4441156   0.1724168), wk =   0.0036413
        k(  540) = (  -0.2307692  -0.4441156   0.2216787), wk =   0.0036413
        k(  541) = (  -0.2307692  -0.4441156   0.2709406), wk =   0.0036413
        k(  542) = (  -0.1538462  -0.3997040   0.0246310), wk =   0.0036413
        k(  543) = (  -0.1538462  -0.3997040   0.0738929), wk =   0.0036413
        k(  544) = (  -0.1538462  -0.3997040   0.1231548), wk =   0.0036413
        k(  545) = (  -0.1538462  -0.3997040   0.1724168), wk =   0.0036413
        k(  546) = (  -0.1538462  -0.3997040   0.2216787), wk =   0.0036413
        k(  547) = (  -0.1538462  -0.3997040   0.2709406), wk =   0.0036413
        k(  548) = (  -0.0769231  -0.3552925   0.0246310), wk =   0.0036413
        k(  549) = (  -0.0769231  -0.3552925   0.0738929), wk =   0.0036413
        k(  550) = (  -0.0769231  -0.3552925   0.1231548), wk =   0.0036413
        k(  551) = (  -0.0769231  -0.3552925   0.1724168), wk =   0.0036413
        k(  552) = (  -0.0769231  -0.3552925   0.2216787), wk =   0.0036413
        k(  553) = (  -0.0769231  -0.3552925   0.2709406), wk =   0.0036413
        k(  554) = (   0.0000000  -0.3108809   0.0246310), wk =   0.0018207
        k(  555) = (   0.0000000  -0.3108809   0.0738929), wk =   0.0018207
        k(  556) = (   0.0000000  -0.3108809   0.1231548), wk =   0.0018207
        k(  557) = (   0.0000000  -0.3108809   0.1724168), wk =   0.0018207
        k(  558) = (   0.0000000  -0.3108809   0.2216787), wk =   0.0018207
        k(  559) = (   0.0000000  -0.3108809   0.2709406), wk =   0.0018207
        k(  560) = (   0.7692308   0.0444116   0.0246310), wk =   0.0036413
        k(  561) = (   0.7692308   0.0444116   0.0738929), wk =   0.0036413
        k(  562) = (   0.7692308   0.0444116   0.1231548), wk =   0.0036413
        k(  563) = (   0.7692308   0.0444116   0.1724168), wk =   0.0036413
        k(  564) = (   0.7692308   0.0444116   0.2216787), wk =   0.0036413
        k(  565) = (   0.7692308   0.0444116   0.2709406), wk =   0.0036413
        k(  566) = (  -0.1538462  -0.4885272   0.0246310), wk =   0.0036413
        k(  567) = (  -0.1538462  -0.4885272   0.0738929), wk =   0.0036413
        k(  568) = (  -0.1538462  -0.4885272   0.1231548), wk =   0.0036413
        k(  569) = (  -0.1538462  -0.4885272   0.1724168), wk =   0.0036413
        k(  570) = (  -0.1538462  -0.4885272   0.2216787), wk =   0.0036413
        k(  571) = (  -0.1538462  -0.4885272   0.2709406), wk =   0.0036413
        k(  572) = (  -0.0769231  -0.4441156   0.0246310), wk =   0.0036413
        k(  573) = (  -0.0769231  -0.4441156   0.0738929), wk =   0.0036413
        k(  574) = (  -0.0769231  -0.4441156   0.1231548), wk =   0.0036413
        k(  575) = (  -0.0769231  -0.4441156   0.1724168), wk =   0.0036413
        k(  576) = (  -0.0769231  -0.4441156   0.2216787), wk =   0.0036413
        k(  577) = (  -0.0769231  -0.4441156   0.2709406), wk =   0.0036413
        k(  578) = (   0.0000000  -0.3997040   0.0246310), wk =   0.0018207
        k(  579) = (   0.0000000  -0.3997040   0.0738929), wk =   0.0018207
        k(  580) = (   0.0000000  -0.3997040   0.1231548), wk =   0.0018207
        k(  581) = (   0.0000000  -0.3997040   0.1724168), wk =   0.0018207
        k(  582) = (   0.0000000  -0.3997040   0.2216787), wk =   0.0018207
        k(  583) = (   0.0000000  -0.3997040   0.2709406), wk =   0.0018207
        k(  584) = (  -0.0769231  -0.5329387   0.0246310), wk =   0.0036413
        k(  585) = (  -0.0769231  -0.5329387   0.0738929), wk =   0.0036413
        k(  586) = (  -0.0769231  -0.5329387   0.1231548), wk =   0.0036413
        k(  587) = (  -0.0769231  -0.5329387   0.1724168), wk =   0.0036413
        k(  588) = (  -0.0769231  -0.5329387   0.2216787), wk =   0.0036413
        k(  589) = (  -0.0769231  -0.5329387   0.2709406), wk =   0.0036413
        k(  590) = (   0.0000000  -0.4885272   0.0246310), wk =   0.0018207
        k(  591) = (   0.0000000  -0.4885272   0.0738929), wk =   0.0018207
        k(  592) = (   0.0000000  -0.4885272   0.1231548), wk =   0.0018207
        k(  593) = (   0.0000000  -0.4885272   0.1724168), wk =   0.0018207
        k(  594) = (   0.0000000  -0.4885272   0.2216787), wk =   0.0018207
        k(  595) = (   0.0000000  -0.4885272   0.2709406), wk =   0.0018207

                       cryst. coord.
        k(    1) = (   0.0384615   0.0384615   0.0384615), wk =   0.0036413
        k(    2) = (   0.0384615   0.0384615   0.1153846), wk =   0.0036413
        k(    3) = (   0.0384615   0.0384615   0.1923077), wk =   0.0036413
        k(    4) = (   0.0384615   0.0384615   0.2692308), wk =   0.0036413
        k(    5) = (   0.0384615   0.0384615   0.3461538), wk =   0.0036413
        k(    6) = (   0.0384615   0.0384615   0.4230769), wk =   0.0036413
        k(    7) = (   0.0384615   0.0384615  -0.5000000), wk =   0.0018207
        k(    8) = (   0.0384615   0.1153846   0.0384615), wk =   0.0036413
        k(    9) = (   0.0384615   0.1153846   0.1153846), wk =   0.0036413
        k(   10) = (   0.0384615   0.1153846   0.1923077), wk =   0.0036413
        k(   11) = (   0.0384615   0.1153846   0.2692308), wk =   0.0036413
        k(   12) = (   0.0384615   0.1153846   0.3461538), wk =   0.0036413
        k(   13) = (   0.0384615   0.1153846   0.4230769), wk =   0.0036413
        k(   14) = (   0.0384615   0.1153846  -0.5000000), wk =   0.0036413
        k(   15) = (   0.0384615   0.1923077   0.0384615), wk =   0.0036413
        k(   16) = (   0.0384615   0.1923077   0.1153846), wk =   0.0036413
        k(   17) = (   0.0384615   0.1923077   0.1923077), wk =   0.0036413
        k(   18) = (   0.0384615   0.1923077   0.2692308), wk =   0.0036413
        k(   19) = (   0.0384615   0.1923077   0.3461538), wk =   0.0036413
        k(   20) = (   0.0384615   0.1923077   0.4230769), wk =   0.0036413
        k(   21) = (   0.0384615   0.1923077  -0.5000000), wk =   0.0036413
        k(   22) = (   0.0384615   0.2692308   0.0384615), wk =   0.0036413
        k(   23) = (   0.0384615   0.2692308   0.1153846), wk =   0.0036413
        k(   24) = (   0.0384615   0.2692308   0.1923077), wk =   0.0036413
        k(   25) = (   0.0384615   0.2692308   0.2692308), wk =   0.0036413
        k(   26) = (   0.0384615   0.2692308   0.3461538), wk =   0.0036413
        k(   27) = (   0.0384615   0.2692308   0.4230769), wk =   0.0036413
        k(   28) = (   0.0384615   0.2692308  -0.5000000), wk =   0.0036413
        k(   29) = (   0.0384615   0.3461538   0.0384615), wk =   0.0036413
        k(   30) = (   0.0384615   0.3461538   0.1153846), wk =   0.0036413
        k(   31) = (   0.0384615   0.3461538   0.1923077), wk =   0.0036413
        k(   32) = (   0.0384615   0.3461538   0.2692308), wk =   0.0036413
        k(   33) = (   0.0384615   0.3461538   0.3461538), wk =   0.0036413
        k(   34) = (   0.0384615   0.3461538   0.4230769), wk =   0.0036413
        k(   35) = (   0.0384615   0.3461538  -0.5000000), wk =   0.0036413
        k(   36) = (   0.0384615   0.4230769   0.0384615), wk =   0.0036413
        k(   37) = (   0.0384615   0.4230769   0.1153846), wk =   0.0036413
        k(   38) = (   0.0384615   0.4230769   0.1923077), wk =   0.0036413
        k(   39) = (   0.0384615   0.4230769   0.2692308), wk =   0.0036413
        k(   40) = (   0.0384615   0.4230769   0.3461538), wk =   0.0036413
        k(   41) = (   0.0384615   0.4230769   0.4230769), wk =   0.0036413
        k(   42) = (   0.0384615   0.4230769  -0.5000000), wk =   0.0036413
        k(   43) = (   0.0384615  -0.5000000   0.0384615), wk =   0.0036413
        k(   44) = (   0.0384615  -0.5000000   0.1153846), wk =   0.0036413
        k(   45) = (   0.0384615  -0.5000000   0.1923077), wk =   0.0036413
        k(   46) = (   0.0384615  -0.5000000   0.2692308), wk =   0.0036413
        k(   47) = (   0.0384615  -0.5000000   0.3461538), wk =   0.0036413
        k(   48) = (   0.0384615  -0.5000000   0.4230769), wk =   0.0036413
        k(   49) = (   0.0384615  -0.5000000  -0.5000000), wk =   0.0036413
        k(   50) = (   0.0384615  -0.4230769   0.0384615), wk =   0.0036413
        k(   51) = (   0.0384615  -0.4230769   0.1153846), wk =   0.0036413
        k(   52) = (   0.0384615  -0.4230769   0.1923077), wk =   0.0036413
        k(   53) = (   0.0384615  -0.4230769   0.2692308), wk =   0.0036413
        k(   54) = (   0.0384615  -0.4230769   0.3461538), wk =   0.0036413
        k(   55) = (   0.0384615  -0.4230769   0.4230769), wk =   0.0036413
        k(   56) = (   0.0384615  -0.4230769  -0.5000000), wk =   0.0036413
        k(   57) = (   0.0384615  -0.3461538   0.0384615), wk =   0.0036413
        k(   58) = (   0.0384615  -0.3461538   0.1153846), wk =   0.0036413
        k(   59) = (   0.0384615  -0.3461538   0.1923077), wk =   0.0036413
        k(   60) = (   0.0384615  -0.3461538   0.2692308), wk =   0.0036413
        k(   61) = (   0.0384615  -0.3461538   0.3461538), wk =   0.0036413
        k(   62) = (   0.0384615  -0.3461538   0.4230769), wk =   0.0036413
        k(   63) = (   0.0384615  -0.3461538  -0.5000000), wk =   0.0036413
        k(   64) = (   0.0384615  -0.2692308   0.0384615), wk =   0.0036413
        k(   65) = (   0.0384615  -0.2692308   0.1153846), wk =   0.0036413
        k(   66) = (   0.0384615  -0.2692308   0.1923077), wk =   0.0036413
        k(   67) = (   0.0384615  -0.2692308   0.2692308), wk =   0.0036413
        k(   68) = (   0.0384615  -0.2692308   0.3461538), wk =   0.0036413
        k(   69) = (   0.0384615  -0.2692308   0.4230769), wk =   0.0036413
        k(   70) = (   0.0384615  -0.2692308  -0.5000000), wk =   0.0036413
        k(   71) = (   0.0384615  -0.1923077   0.0384615), wk =   0.0036413
        k(   72) = (   0.0384615  -0.1923077   0.1153846), wk =   0.0036413
        k(   73) = (   0.0384615  -0.1923077   0.1923077), wk =   0.0036413
        k(   74) = (   0.0384615  -0.1923077   0.2692308), wk =   0.0036413
        k(   75) = (   0.0384615  -0.1923077   0.3461538), wk =   0.0036413
        k(   76) = (   0.0384615  -0.1923077   0.4230769), wk =   0.0036413
        k(   77) = (   0.0384615  -0.1923077  -0.5000000), wk =   0.0036413
        k(   78) = (   0.0384615  -0.1153846   0.0384615), wk =   0.0036413
        k(   79) = (   0.0384615  -0.1153846   0.1153846), wk =   0.0036413
        k(   80) = (   0.0384615  -0.1153846   0.1923077), wk =   0.0036413
        k(   81) = (   0.0384615  -0.1153846   0.2692308), wk =   0.0036413
        k(   82) = (   0.0384615  -0.1153846   0.3461538), wk =   0.0036413
        k(   83) = (   0.0384615  -0.1153846   0.4230769), wk =   0.0036413
        k(   84) = (   0.0384615  -0.1153846  -0.5000000), wk =   0.0036413
        k(   85) = (   0.0384615  -0.0384615   0.0384615), wk =   0.0018207
        k(   86) = (   0.0384615  -0.0384615   0.1153846), wk =   0.0018207
        k(   87) = (   0.0384615  -0.0384615   0.1923077), wk =   0.0018207
        k(   88) = (   0.0384615  -0.0384615   0.2692308), wk =   0.0018207
        k(   89) = (   0.0384615  -0.0384615   0.3461538), wk =   0.0018207
        k(   90) = (   0.0384615  -0.0384615   0.4230769), wk =   0.0018207
        k(   91) = (   0.0384615  -0.0384615  -0.5000000), wk =   0.0018207
        k(   92) = (   0.1153846   0.1153846   0.0384615), wk =   0.0036413
        k(   93) = (   0.1153846   0.1153846   0.1153846), wk =   0.0036413
        k(   94) = (   0.1153846   0.1153846   0.1923077), wk =   0.0036413
        k(   95) = (   0.1153846   0.1153846   0.2692308), wk =   0.0036413
        k(   96) = (   0.1153846   0.1153846   0.3461538), wk =   0.0036413
        k(   97) = (   0.1153846   0.1153846   0.4230769), wk =   0.0036413
        k(   98) = (   0.1153846   0.1153846  -0.5000000), wk =   0.0018207
        k(   99) = (   0.1153846   0.1923077   0.0384615), wk =   0.0036413
        k(  100) = (   0.1153846   0.1923077   0.1153846), wk =   0.0036413
        k(  101) = (   0.1153846   0.1923077   0.1923077), wk =   0.0036413
        k(  102) = (   0.1153846   0.1923077   0.2692308), wk =   0.0036413
        k(  103) = (   0.1153846   0.1923077   0.3461538), wk =   0.0036413
        k(  104) = (   0.1153846   0.1923077   0.4230769), wk =   0.0036413
        k(  105) = (   0.1153846   0.1923077  -0.5000000), wk =   0.0036413
        k(  106) = (   0.1153846   0.2692308   0.0384615), wk =   0.0036413
        k(  107) = (   0.1153846   0.2692308   0.1153846), wk =   0.0036413
        k(  108) = (   0.1153846   0.2692308   0.1923077), wk =   0.0036413
        k(  109) = (   0.1153846   0.2692308   0.2692308), wk =   0.0036413
        k(  110) = (   0.1153846   0.2692308   0.3461538), wk =   0.0036413
        k(  111) = (   0.1153846   0.2692308   0.4230769), wk =   0.0036413
        k(  112) = (   0.1153846   0.2692308  -0.5000000), wk =   0.0036413
        k(  113) = (   0.1153846   0.3461538   0.0384615), wk =   0.0036413
        k(  114) = (   0.1153846   0.3461538   0.1153846), wk =   0.0036413
        k(  115) = (   0.1153846   0.3461538   0.1923077), wk =   0.0036413
        k(  116) = (   0.1153846   0.3461538   0.2692308), wk =   0.0036413
        k(  117) = (   0.1153846   0.3461538   0.3461538), wk =   0.0036413
        k(  118) = (   0.1153846   0.3461538   0.4230769), wk =   0.0036413
        k(  119) = (   0.1153846   0.3461538  -0.5000000), wk =   0.0036413
        k(  120) = (   0.1153846   0.4230769   0.0384615), wk =   0.0036413
        k(  121) = (   0.1153846   0.4230769   0.1153846), wk =   0.0036413
        k(  122) = (   0.1153846   0.4230769   0.1923077), wk =   0.0036413
        k(  123) = (   0.1153846   0.4230769   0.2692308), wk =   0.0036413
        k(  124) = (   0.1153846   0.4230769   0.3461538), wk =   0.0036413
        k(  125) = (   0.1153846   0.4230769   0.4230769), wk =   0.0036413
        k(  126) = (   0.1153846   0.4230769  -0.5000000), wk =   0.0036413
        k(  127) = (   0.1153846  -0.5000000   0.0384615), wk =   0.0036413
        k(  128) = (   0.1153846  -0.5000000   0.1153846), wk =   0.0036413
        k(  129) = (   0.1153846  -0.5000000   0.1923077), wk =   0.0036413
        k(  130) = (   0.1153846  -0.5000000   0.2692308), wk =   0.0036413
        k(  131) = (   0.1153846  -0.5000000   0.3461538), wk =   0.0036413
        k(  132) = (   0.1153846  -0.5000000   0.4230769), wk =   0.0036413
        k(  133) = (   0.1153846  -0.5000000  -0.5000000), wk =   0.0036413
        k(  134) = (   0.1153846  -0.4230769   0.0384615), wk =   0.0036413
        k(  135) = (   0.1153846  -0.4230769   0.1153846), wk =   0.0036413
        k(  136) = (   0.1153846  -0.4230769   0.1923077), wk =   0.0036413
        k(  137) = (   0.1153846  -0.4230769   0.2692308), wk =   0.0036413
        k(  138) = (   0.1153846  -0.4230769   0.3461538), wk =   0.0036413
        k(  139) = (   0.1153846  -0.4230769   0.4230769), wk =   0.0036413
        k(  140) = (   0.1153846  -0.4230769  -0.5000000), wk =   0.0036413
        k(  141) = (   0.1153846  -0.3461538   0.0384615), wk =   0.0036413
        k(  142) = (   0.1153846  -0.3461538   0.1153846), wk =   0.0036413
        k(  143) = (   0.1153846  -0.3461538   0.1923077), wk =   0.0036413
        k(  144) = (   0.1153846  -0.3461538   0.2692308), wk =   0.0036413
        k(  145) = (   0.1153846  -0.3461538   0.3461538), wk =   0.0036413
        k(  146) = (   0.1153846  -0.3461538   0.4230769), wk =   0.0036413
        k(  147) = (   0.1153846  -0.3461538  -0.5000000), wk =   0.0036413
        k(  148) = (   0.1153846  -0.2692308   0.0384615), wk =   0.0036413
        k(  149) = (   0.1153846  -0.2692308   0.1153846), wk =   0.0036413
        k(  150) = (   0.1153846  -0.2692308   0.1923077), wk =   0.0036413
        k(  151) = (   0.1153846  -0.2692308   0.2692308), wk =   0.0036413
        k(  152) = (   0.1153846  -0.2692308   0.3461538), wk =   0.0036413
        k(  153) = (   0.1153846  -0.2692308   0.4230769), wk =   0.0036413
        k(  154) = (   0.1153846  -0.2692308  -0.5000000), wk =   0.0036413
        k(  155) = (   0.1153846  -0.1923077   0.0384615), wk =   0.0036413
        k(  156) = (   0.1153846  -0.1923077   0.1153846), wk =   0.0036413
        k(  157) = (   0.1153846  -0.1923077   0.1923077), wk =   0.0036413
        k(  158) = (   0.1153846  -0.1923077   0.2692308), wk =   0.0036413
        k(  159) = (   0.1153846  -0.1923077   0.3461538), wk =   0.0036413
        k(  160) = (   0.1153846  -0.1923077   0.4230769), wk =   0.0036413
        k(  161) = (   0.1153846  -0.1923077  -0.5000000), wk =   0.0036413
        k(  162) = (   0.1153846  -0.1153846   0.0384615), wk =   0.0018207
        k(  163) = (   0.1153846  -0.1153846   0.1153846), wk =   0.0018207
        k(  164) = (   0.1153846  -0.1153846   0.1923077), wk =   0.0018207
        k(  165) = (   0.1153846  -0.1153846   0.2692308), wk =   0.0018207
        k(  166) = (   0.1153846  -0.1153846   0.3461538), wk =   0.0018207
        k(  167) = (   0.1153846  -0.1153846   0.4230769), wk =   0.0018207
        k(  168) = (   0.1153846  -0.1153846  -0.5000000), wk =   0.0018207
        k(  169) = (   0.1923077   0.1923077   0.0384615), wk =   0.0036413
        k(  170) = (   0.1923077   0.1923077   0.1153846), wk =   0.0036413
        k(  171) = (   0.1923077   0.1923077   0.1923077), wk =   0.0036413
        k(  172) = (   0.1923077   0.1923077   0.2692308), wk =   0.0036413
        k(  173) = (   0.1923077   0.1923077   0.3461538), wk =   0.0036413
        k(  174) = (   0.1923077   0.1923077   0.4230769), wk =   0.0036413
        k(  175) = (   0.1923077   0.1923077  -0.5000000), wk =   0.0018207
        k(  176) = (   0.1923077   0.2692308   0.0384615), wk =   0.0036413
        k(  177) = (   0.1923077   0.2692308   0.1153846), wk =   0.0036413
        k(  178) = (   0.1923077   0.2692308   0.1923077), wk =   0.0036413
        k(  179) = (   0.1923077   0.2692308   0.2692308), wk =   0.0036413
        k(  180) = (   0.1923077   0.2692308   0.3461538), wk =   0.0036413
        k(  181) = (   0.1923077   0.2692308   0.4230769), wk =   0.0036413
        k(  182) = (   0.1923077   0.2692308  -0.5000000), wk =   0.0036413
        k(  183) = (   0.1923077   0.3461538   0.0384615), wk =   0.0036413
        k(  184) = (   0.1923077   0.3461538   0.1153846), wk =   0.0036413
        k(  185) = (   0.1923077   0.3461538   0.1923077), wk =   0.0036413
        k(  186) = (   0.1923077   0.3461538   0.2692308), wk =   0.0036413
        k(  187) = (   0.1923077   0.3461538   0.3461538), wk =   0.0036413
        k(  188) = (   0.1923077   0.3461538   0.4230769), wk =   0.0036413
        k(  189) = (   0.1923077   0.3461538  -0.5000000), wk =   0.0036413
        k(  190) = (   0.1923077   0.4230769   0.0384615), wk =   0.0036413
        k(  191) = (   0.1923077   0.4230769   0.1153846), wk =   0.0036413
        k(  192) = (   0.1923077   0.4230769   0.1923077), wk =   0.0036413
        k(  193) = (   0.1923077   0.4230769   0.2692308), wk =   0.0036413
        k(  194) = (   0.1923077   0.4230769   0.3461538), wk =   0.0036413
        k(  195) = (   0.1923077   0.4230769   0.4230769), wk =   0.0036413
        k(  196) = (   0.1923077   0.4230769  -0.5000000), wk =   0.0036413
        k(  197) = (   0.1923077  -0.5000000   0.0384615), wk =   0.0036413
        k(  198) = (   0.1923077  -0.5000000   0.1153846), wk =   0.0036413
        k(  199) = (   0.1923077  -0.5000000   0.1923077), wk =   0.0036413
        k(  200) = (   0.1923077  -0.5000000   0.2692308), wk =   0.0036413
        k(  201) = (   0.1923077  -0.5000000   0.3461538), wk =   0.0036413
        k(  202) = (   0.1923077  -0.5000000   0.4230769), wk =   0.0036413
        k(  203) = (   0.1923077  -0.5000000  -0.5000000), wk =   0.0036413
        k(  204) = (   0.1923077  -0.4230769   0.0384615), wk =   0.0036413
        k(  205) = (   0.1923077  -0.4230769   0.1153846), wk =   0.0036413
        k(  206) = (   0.1923077  -0.4230769   0.1923077), wk =   0.0036413
        k(  207) = (   0.1923077  -0.4230769   0.2692308), wk =   0.0036413
        k(  208) = (   0.1923077  -0.4230769   0.3461538), wk =   0.0036413
        k(  209) = (   0.1923077  -0.4230769   0.4230769), wk =   0.0036413
        k(  210) = (   0.1923077  -0.4230769  -0.5000000), wk =   0.0036413
        k(  211) = (   0.1923077  -0.3461538   0.0384615), wk =   0.0036413
        k(  212) = (   0.1923077  -0.3461538   0.1153846), wk =   0.0036413
        k(  213) = (   0.1923077  -0.3461538   0.1923077), wk =   0.0036413
        k(  214) = (   0.1923077  -0.3461538   0.2692308), wk =   0.0036413
        k(  215) = (   0.1923077  -0.3461538   0.3461538), wk =   0.0036413
        k(  216) = (   0.1923077  -0.3461538   0.4230769), wk =   0.0036413
        k(  217) = (   0.1923077  -0.3461538  -0.5000000), wk =   0.0036413
        k(  218) = (   0.1923077  -0.2692308   0.0384615), wk =   0.0036413
        k(  219) = (   0.1923077  -0.2692308   0.1153846), wk =   0.0036413
        k(  220) = (   0.1923077  -0.2692308   0.1923077), wk =   0.0036413
        k(  221) = (   0.1923077  -0.2692308   0.2692308), wk =   0.0036413
        k(  222) = (   0.1923077  -0.2692308   0.3461538), wk =   0.0036413
        k(  223) = (   0.1923077  -0.2692308   0.4230769), wk =   0.0036413
        k(  224) = (   0.1923077  -0.2692308  -0.5000000), wk =   0.0036413
        k(  225) = (   0.1923077  -0.1923077   0.0384615), wk =   0.0018207
        k(  226) = (   0.1923077  -0.1923077   0.1153846), wk =   0.0018207
        k(  227) = (   0.1923077  -0.1923077   0.1923077), wk =   0.0018207
        k(  228) = (   0.1923077  -0.1923077   0.2692308), wk =   0.0018207
        k(  229) = (   0.1923077  -0.1923077   0.3461538), wk =   0.0018207
        k(  230) = (   0.1923077  -0.1923077   0.4230769), wk =   0.0018207
        k(  231) = (   0.1923077  -0.1923077  -0.5000000), wk =   0.0018207
        k(  232) = (   0.2692308   0.2692308   0.0384615), wk =   0.0036413
        k(  233) = (   0.2692308   0.2692308   0.1153846), wk =   0.0036413
        k(  234) = (   0.2692308   0.2692308   0.1923077), wk =   0.0036413
        k(  235) = (   0.2692308   0.2692308   0.2692308), wk =   0.0036413
        k(  236) = (   0.2692308   0.2692308   0.3461538), wk =   0.0036413
        k(  237) = (   0.2692308   0.2692308   0.4230769), wk =   0.0036413
        k(  238) = (   0.2692308   0.2692308  -0.5000000), wk =   0.0018207
        k(  239) = (   0.2692308   0.3461538   0.0384615), wk =   0.0036413
        k(  240) = (   0.2692308   0.3461538   0.1153846), wk =   0.0036413
        k(  241) = (   0.2692308   0.3461538   0.1923077), wk =   0.0036413
        k(  242) = (   0.2692308   0.3461538   0.2692308), wk =   0.0036413
        k(  243) = (   0.2692308   0.3461538   0.3461538), wk =   0.0036413
        k(  244) = (   0.2692308   0.3461538   0.4230769), wk =   0.0036413
        k(  245) = (   0.2692308   0.3461538  -0.5000000), wk =   0.0036413
        k(  246) = (   0.2692308   0.4230769   0.0384615), wk =   0.0036413
        k(  247) = (   0.2692308   0.4230769   0.1153846), wk =   0.0036413
        k(  248) = (   0.2692308   0.4230769   0.1923077), wk =   0.0036413
        k(  249) = (   0.2692308   0.4230769   0.2692308), wk =   0.0036413
        k(  250) = (   0.2692308   0.4230769   0.3461538), wk =   0.0036413
        k(  251) = (   0.2692308   0.4230769   0.4230769), wk =   0.0036413
        k(  252) = (   0.2692308   0.4230769  -0.5000000), wk =   0.0036413
        k(  253) = (   0.2692308  -0.5000000   0.0384615), wk =   0.0036413
        k(  254) = (   0.2692308  -0.5000000   0.1153846), wk =   0.0036413
        k(  255) = (   0.2692308  -0.5000000   0.1923077), wk =   0.0036413
        k(  256) = (   0.2692308  -0.5000000   0.2692308), wk =   0.0036413
        k(  257) = (   0.2692308  -0.5000000   0.3461538), wk =   0.0036413
        k(  258) = (   0.2692308  -0.5000000   0.4230769), wk =   0.0036413
        k(  259) = (   0.2692308  -0.5000000  -0.5000000), wk =   0.0036413
        k(  260) = (   0.2692308  -0.4230769   0.0384615), wk =   0.0036413
        k(  261) = (   0.2692308  -0.4230769   0.1153846), wk =   0.0036413
        k(  262) = (   0.2692308  -0.4230769   0.1923077), wk =   0.0036413
        k(  263) = (   0.2692308  -0.4230769   0.2692308), wk =   0.0036413
        k(  264) = (   0.2692308  -0.4230769   0.3461538), wk =   0.0036413
        k(  265) = (   0.2692308  -0.4230769   0.4230769), wk =   0.0036413
        k(  266) = (   0.2692308  -0.4230769  -0.5000000), wk =   0.0036413
        k(  267) = (   0.2692308  -0.3461538   0.0384615), wk =   0.0036413
        k(  268) = (   0.2692308  -0.3461538   0.1153846), wk =   0.0036413
        k(  269) = (   0.2692308  -0.3461538   0.1923077), wk =   0.0036413
        k(  270) = (   0.2692308  -0.3461538   0.2692308), wk =   0.0036413
        k(  271) = (   0.2692308  -0.3461538   0.3461538), wk =   0.0036413
        k(  272) = (   0.2692308  -0.3461538   0.4230769), wk =   0.0036413
        k(  273) = (   0.2692308  -0.3461538  -0.5000000), wk =   0.0036413
        k(  274) = (   0.2692308  -0.2692308   0.0384615), wk =   0.0018207
        k(  275) = (   0.2692308  -0.2692308   0.1153846), wk =   0.0018207
        k(  276) = (   0.2692308  -0.2692308   0.1923077), wk =   0.0018207
        k(  277) = (   0.2692308  -0.2692308   0.2692308), wk =   0.0018207
        k(  278) = (   0.2692308  -0.2692308   0.3461538), wk =   0.0018207
        k(  279) = (   0.2692308  -0.2692308   0.4230769), wk =   0.0018207
        k(  280) = (   0.2692308  -0.2692308  -0.5000000), wk =   0.0018207
        k(  281) = (   0.3461538   0.3461538   0.0384615), wk =   0.0036413
        k(  282) = (   0.3461538   0.3461538   0.1153846), wk =   0.0036413
        k(  283) = (   0.3461538   0.3461538   0.1923077), wk =   0.0036413
        k(  284) = (   0.3461538   0.3461538   0.2692308), wk =   0.0036413
        k(  285) = (   0.3461538   0.3461538   0.3461538), wk =   0.0036413
        k(  286) = (   0.3461538   0.3461538   0.4230769), wk =   0.0036413
        k(  287) = (   0.3461538   0.3461538  -0.5000000), wk =   0.0018207
        k(  288) = (   0.3461538   0.4230769   0.0384615), wk =   0.0036413
        k(  289) = (   0.3461538   0.4230769   0.1153846), wk =   0.0036413
        k(  290) = (   0.3461538   0.4230769   0.1923077), wk =   0.0036413
        k(  291) = (   0.3461538   0.4230769   0.2692308), wk =   0.0036413
        k(  292) = (   0.3461538   0.4230769   0.3461538), wk =   0.0036413
        k(  293) = (   0.3461538   0.4230769   0.4230769), wk =   0.0036413
        k(  294) = (   0.3461538   0.4230769  -0.5000000), wk =   0.0036413
        k(  295) = (   0.3461538  -0.5000000   0.0384615), wk =   0.0036413
        k(  296) = (   0.3461538  -0.5000000   0.1153846), wk =   0.0036413
        k(  297) = (   0.3461538  -0.5000000   0.1923077), wk =   0.0036413
        k(  298) = (   0.3461538  -0.5000000   0.2692308), wk =   0.0036413
        k(  299) = (   0.3461538  -0.5000000   0.3461538), wk =   0.0036413
        k(  300) = (   0.3461538  -0.5000000   0.4230769), wk =   0.0036413
        k(  301) = (   0.3461538  -0.5000000  -0.5000000), wk =   0.0036413
        k(  302) = (   0.3461538  -0.4230769   0.0384615), wk =   0.0036413
        k(  303) = (   0.3461538  -0.4230769   0.1153846), wk =   0.0036413
        k(  304) = (   0.3461538  -0.4230769   0.1923077), wk =   0.0036413
        k(  305) = (   0.3461538  -0.4230769   0.2692308), wk =   0.0036413
        k(  306) = (   0.3461538  -0.4230769   0.3461538), wk =   0.0036413
        k(  307) = (   0.3461538  -0.4230769   0.4230769), wk =   0.0036413
        k(  308) = (   0.3461538  -0.4230769  -0.5000000), wk =   0.0036413
        k(  309) = (   0.3461538  -0.3461538   0.0384615), wk =   0.0018207
        k(  310) = (   0.3461538  -0.3461538   0.1153846), wk =   0.0018207
        k(  311) = (   0.3461538  -0.3461538   0.1923077), wk =   0.0018207
        k(  312) = (   0.3461538  -0.3461538   0.2692308), wk =   0.0018207
        k(  313) = (   0.3461538  -0.3461538   0.3461538), wk =   0.0018207
        k(  314) = (   0.3461538  -0.3461538   0.4230769), wk =   0.0018207
        k(  315) = (   0.3461538  -0.3461538  -0.5000000), wk =   0.0018207
        k(  316) = (   0.4230769   0.4230769   0.0384615), wk =   0.0036413
        k(  317) = (   0.4230769   0.4230769   0.1153846), wk =   0.0036413
        k(  318) = (   0.4230769   0.4230769   0.1923077), wk =   0.0036413
        k(  319) = (   0.4230769   0.4230769   0.2692308), wk =   0.0036413
        k(  320) = (   0.4230769   0.4230769   0.3461538), wk =   0.0036413
        k(  321) = (   0.4230769   0.4230769   0.4230769), wk =   0.0036413
        k(  322) = (   0.4230769   0.4230769  -0.5000000), wk =   0.0018207
        k(  323) = (   0.4230769  -0.5000000   0.0384615), wk =   0.0036413
        k(  324) = (   0.4230769  -0.5000000   0.1153846), wk =   0.0036413
        k(  325) = (   0.4230769  -0.5000000   0.1923077), wk =   0.0036413
        k(  326) = (   0.4230769  -0.5000000   0.2692308), wk =   0.0036413
        k(  327) = (   0.4230769  -0.5000000   0.3461538), wk =   0.0036413
[...]
     5.5972  10.5689  12.3628  12.5857  13.9280  14.6201  15.5124  17.8308
    17.9747  18.3429  18.8585

     occupation numbers 
     1.0000   1.0000   1.0000   1.0000   1.0000   1.0000   1.0000   1.0000
     1.0000   1.0000   1.0000   1.0000   1.0000   1.0000   1.0013   0.0000
     0.0000   0.0000   0.0000

          k =-0.1538-0.4885 0.0739 (  1116 PWs)   bands (ev):

   -48.0051 -47.9707 -22.1033 -22.0172 -21.9255 -21.8771 -21.7758 -21.7154
     5.6037  10.5419  12.3909  12.4992  14.0246  14.6839  15.5471  17.8168
    17.9995  18.1822  18.8450

     occupation numbers 
     1.0000   1.0000   1.0000   1.0000   1.0000   1.0000   1.0000   1.0000
     1.0000   1.0000   1.0000   1.0000   1.0000   1.0000   1.0027   0.0000
     0.0000   0.0000   0.0000

          k =-0.1538-0.4885 0.1232 (  1114 PWs)   bands (ev):

   -48.0030 -47.9728 -22.1136 -22.0420 -21.9235 -21.8465 -21.7859 -21.7022
     5.6074  10.5331  12.3943  12.4210  14.1849  14.7748  15.5756  17.6732
    17.8690  18.1976  18.8243

     occupation numbers 
     1.0000   1.0000   1.0000   1.0000   1.0000   1.0000   1.0000   1.0000
     1.0000   1.0000   1.0000   1.0000   1.0000   1.0000   1.0047   0.0000
     0.0000   0.0000   0.0000

          k =-0.1538-0.4885 0.1724 (  1119 PWs)   bands (ev):

   -48.0001 -47.9757 -22.1235 -22.0687 -21.9172 -21.8228 -21.7884 -21.6926
     5.6074  10.5448  12.3107  12.4304  14.3877  14.8749  15.5946  17.3876
    17.7471  18.3035  18.7694

     occupation numbers 
     1.0000   1.0000   1.0000   1.0000   1.0000   1.0000   1.0000   1.0000
     1.0000   1.0000   1.0000   1.0000   1.0000   1.0000   1.0067   0.0000
     0.0000   0.0000   0.0000

          k =-0.1538-0.4885 0.2217 (  1117 PWs)   bands (ev):

   -47.9965 -47.9793 -22.1289 -22.0945 -21.9053 -21.8298 -21.7643 -21.6896
     5.6038  10.5758  12.2482  12.4275  14.6053  14.9620  15.6157  17.0466
    17.6873  18.3976  18.5932

     occupation numbers 
     1.0000   1.0000   1.0000   1.0000   1.0000   1.0000   1.0000   1.0000
     1.0000   1.0000   1.0000   1.0000   1.0000   1.0000   1.0097   0.0000
     0.0000   0.0000   0.0000

          k =-0.1538-0.4885 0.2709 (  1118 PWs)   bands (ev):

   -47.9925 -47.9833 -22.1276 -22.1166 -21.8891 -21.8475 -21.7361 -21.6951
     5.5973  10.6210  12.2160  12.4091  14.7783  15.0227  15.6697  16.7042
    17.6879  18.3848  18.4576

     occupation numbers 
     1.0000   1.0000   1.0000   1.0000   1.0000   1.0000   1.0000   1.0000
     1.0000   1.0000   1.0000   1.0000   1.0000   1.0000   1.0223   0.0000
     0.0000   0.0000   0.0000

          k =-0.0769-0.4441 0.0246 (  1119 PWs)   bands (ev):

   -48.0185 -47.9686 -22.0851 -21.9884 -21.9657 -21.8683 -21.7260 -21.6960
     5.3850  10.5147  12.3254  12.8551  13.7302  14.6792  15.8133  17.6525
    17.8370  18.4091  18.4465

     occupation numbers 
     1.0000   1.0000   1.0000   1.0000   1.0000   1.0000   1.0000   1.0000
     1.0000   1.0000   1.0000   1.0000   1.0000   1.0000   1.0802   0.0000
     0.0000   0.0000   0.0000

          k =-0.0769-0.4441 0.0739 (  1115 PWs)   bands (ev):

   -48.0171 -47.9700 -22.0951 -22.0080 -21.9404 -21.8645 -21.7309 -21.6905
     5.3981  10.4621  12.3108  12.8255  13.7802  14.7642  15.8794  17.7581
    17.8269  18.2026  18.4573

     occupation numbers 
     1.0000   1.0000   1.0000   1.0000   1.0000   1.0000   1.0000   1.0000
     1.0000   1.0000   1.0000   1.0000   1.0000   1.0000   1.0705   0.0000
     0.0000   0.0000   0.0000

          k =-0.0769-0.4441 0.1232 (  1118 PWs)   bands (ev):

   -48.0143 -47.9728 -22.1101 -22.0320 -21.9075 -21.8538 -21.7403 -21.6853
     5.4068  10.4400  12.2624  12.8281  13.9040  14.8482  15.9066  17.7242
    17.9061  17.9313  18.4348

     occupation numbers 
     1.0000   1.0000   1.0000   1.0000   1.0000   1.0000   1.0000   1.0000
     1.0000   1.0000   1.0000   1.0000   1.0000   1.0000   1.0451   0.0000
     0.0000   0.0000   0.0000

          k =-0.0769-0.4441 0.1724 (  1118 PWs)   bands (ev):

   -48.0103 -47.9768 -22.1215 -22.0596 -21.8779 -21.8323 -21.7528 -21.6845
     5.4090  10.4521  12.2003  12.8580  14.0831  14.9139  15.8794  17.5568
    17.7050  18.0149  18.3867

     occupation numbers 
     1.0000   1.0000   1.0000   1.0000   1.0000   1.0000   1.0000   1.0000
     1.0000   1.0000   1.0000   1.0000   1.0000   1.0000   1.0704   0.0000
     0.0000   0.0000   0.0000

          k =-0.0769-0.4441 0.2217 (  1121 PWs)   bands (ev):

   -48.0054 -47.9818 -22.1258 -22.0875 -21.8553 -21.8030 -21.7663 -21.6905
     5.4042  10.4972  12.1452  12.8983  14.2911  14.9401  15.8146  17.2266
    17.6558  18.0932  18.3129

     occupation numbers 
     1.0000   1.0000   1.0000   1.0000   1.0000   1.0000   1.0000   1.0000
     1.0000   1.0000   1.0000   1.0000   1.0000   1.0000   1.0806   0.0000
     0.0000   0.0000   0.0000

          k =-0.0769-0.4441 0.2709 (  1123 PWs)   bands (ev):

   -47.9998 -47.9873 -22.1217 -22.1125 -21.8353 -21.7936 -21.7606 -21.7044
     5.3934  10.5687  12.1074  12.9331  14.4824  14.9152  15.7567  16.8998
    17.6617  18.1026  18.2368

     occupation numbers 
     1.0000   1.0000   1.0000   1.0000   1.0000   1.0000   1.0000   1.0000
     1.0000   1.0000   1.0000   1.0000   1.0000   1.0000   1.0582   0.0000
     0.0000   0.0000   0.0000

          k = 0.0000-0.3997 0.0246 (  1118 PWs)   bands (ev):

   -48.0294 -47.9690 -22.0548 -22.0060 -21.9518 -21.8522 -21.7071 -21.6734
     5.1598  10.6616  12.1764  13.0476  13.7474  14.7366  15.8982  17.3497
    17.8040  17.9162  18.4852

     occupation numbers 
     1.0000   1.0000   1.0000   1.0000   1.0000   1.0000   1.0000   1.0000
     1.0000   1.0000   1.0000   1.0000   1.0000   1.0000   1.0546   0.0000
     0.0000   0.0000   0.0000

          k = 0.0000-0.3997 0.0739 (  1117 PWs)   bands (ev):

   -48.0277 -47.9707 -22.0722 -21.9932 -21.9490 -21.8489 -21.7106 -21.6715
     5.1783  10.5916  12.1615  13.0303  13.7531  14.8183  15.9954  17.4908
    17.7565  17.9236  18.3860

     occupation numbers 
     1.0000   1.0000   1.0000   1.0000   1.0000   1.0000   1.0000   1.0000
     1.0000   1.0000   1.0000   1.0000   1.0000   1.0000   0.8488   0.0000
     0.0000   0.0000   0.0000

          k = 0.0000-0.3997 0.1232 (  1117 PWs)   bands (ev):

   -48.0243 -47.9741 -22.0907 -22.0061 -21.9167 -21.8415 -21.7181 -21.6723
     5.1946  10.5558  12.1187  13.0417  13.8397  14.8753  16.0327  17.6140
    17.7051  17.8458  18.2494

     occupation numbers 
     1.0000   1.0000   1.0000   1.0000   1.0000   1.0000   1.0000   1.0000
     1.0000   1.0000   1.0000   1.0000   1.0000   1.0000   0.7219   0.0000
     0.0000   0.0000   0.0000

          k = 0.0000-0.3997 0.1724 (  1118 PWs)   bands (ev):

   -48.0195 -47.9789 -22.1017 -22.0321 -21.8734 -21.8306 -21.7292 -21.6783
     5.2049  10.5596  12.0651  13.0798  13.9949  14.8900  15.9850  17.5797
    17.6690  17.8130  18.1227

     occupation numbers 
     1.0000   1.0000   1.0000   1.0000   1.0000   1.0000   1.0000   1.0000
     1.0000   1.0000   1.0000   1.0000   1.0000   1.0000   0.8805   0.0000
     0.0000   0.0000   0.0000

          k = 0.0000-0.3997 0.2217 (  1117 PWs)   bands (ev):

   -48.0135 -47.9849 -22.1040 -22.0603 -21.8297 -21.8167 -21.7432 -21.6913
     5.2067  10.6045  12.0150  13.1383  14.1939  14.8418  15.8726  17.3318
    17.6581  17.9275  18.0199

     occupation numbers 
     1.0000   1.0000   1.0000   1.0000   1.0000   1.0000   1.0000   1.0000
     1.0000   1.0000   1.0000   1.0000   1.0000   1.0000   1.0745   0.0000
     0.0000   0.0000   0.0000

          k = 0.0000-0.3997 0.2709 (  1117 PWs)   bands (ev):

   -48.0068 -47.9916 -22.0983 -22.0857 -21.8007 -21.7890 -21.7594 -21.7121
     5.1995  10.6865  11.9749  13.2063  14.3983  14.7238  15.7490  17.0699
    17.6598  17.9201  18.0638

     occupation numbers 
     1.0000   1.0000   1.0000   1.0000   1.0000   1.0000   1.0000   1.0000
     1.0000   1.0000   1.0000   1.0000   1.0000   1.0000   1.0545   0.0000
     0.0000   0.0000   0.0000

          k =-0.0769-0.5329 0.0246 (  1117 PWs)   bands (ev):

   -48.0060 -47.9698 -22.1275 -22.0147 -21.9259 -21.8841 -21.7341 -21.7265
     5.6215  10.3031  12.4374  12.7288  13.6153  14.7014  15.9202  18.0391
    18.0914  18.5489  18.9435

     occupation numbers 
     1.0000   1.0000   1.0000   1.0000   1.0000   1.0000   1.0000   1.0000
     1.0000   1.0000   1.0000   1.0000   1.0000   1.0000   1.0266   0.0000
     0.0000   0.0000   0.0000

          k =-0.0769-0.5329 0.0739 (  1117 PWs)   bands (ev):

   -48.0050 -47.9708 -22.1363 -22.0302 -21.9143 -21.8733 -21.7415 -21.7169
     5.6241  10.2805  12.4055  12.7423  13.6969  14.7619  15.9407  17.9455
    18.1314  18.4052  18.8705

     occupation numbers 
     1.0000   1.0000   1.0000   1.0000   1.0000   1.0000   1.0000   1.0000
     1.0000   1.0000   1.0000   1.0000   1.0000   1.0000   0.9906   0.0000
     0.0000   0.0000   0.0000

          k =-0.0769-0.5329 0.1232 (  1115 PWs)   bands (ev):

   -48.0030 -47.9728 -22.1493 -22.0557 -21.8980 -21.8501 -21.7519 -21.7070
     5.6215  10.2711  12.3459  12.7848  13.8551  14.8432  15.9460  17.6846
    18.1718  18.2863  18.7346

     occupation numbers 
     1.0000   1.0000   1.0000   1.0000   1.0000   1.0000   1.0000   1.0000
     1.0000   1.0000   1.0000   1.0000   1.0000   1.0000   0.9798   0.0000
     0.0000   0.0000   0.0000

          k =-0.0769-0.5329 0.1724 (  1112 PWs)   bands (ev):

   -48.0001 -47.9757 -22.1603 -22.0853 -21.8814 -21.8186 -21.7653 -21.7005
     5.6145  10.2767  12.2850  12.8378  14.0638  14.9337  15.9334  17.3476
    18.1049  18.2781  18.5684

     occupation numbers 
     1.0000   1.0000   1.0000   1.0000   1.0000   1.0000   1.0000   1.0000
     1.0000   1.0000   1.0000   1.0000   1.0000   1.0000   1.0045   0.0000
     0.0000   0.0000   0.0000

          k =-0.0769-0.5329 0.2217 (  1119 PWs)   bands (ev):

   -47.9965 -47.9793 -22.1654 -22.1144 -21.8636 -21.7902 -21.7768 -21.7003
     5.6047  10.2962  12.2370  12.8874  14.2898  15.0133  15.9129  17.0077
    17.9814  18.2659  18.4723

     occupation numbers 
     1.0000   1.0000   1.0000   1.0000   1.0000   1.0000   1.0000   1.0000
     1.0000   1.0000   1.0000   1.0000   1.0000   1.0000   1.0371   0.0000
     0.0000   0.0000   0.0000

          k =-0.0769-0.5329 0.2709 (  1123 PWs)   bands (ev):

   -47.9924 -47.9833 -22.1631 -22.1391 -21.8444 -21.8027 -21.7527 -21.7082
     5.5943  10.3254  12.2075  12.9235  14.4848  15.0530  15.9082  16.7152
    17.8759  18.2015  18.4763

     occupation numbers 
     1.0000   1.0000   1.0000   1.0000   1.0000   1.0000   1.0000   1.0000
     1.0000   1.0000   1.0000   1.0000   1.0000   1.0000   1.0431   0.0000
     0.0000   0.0000   0.0000

          k = 0.0000-0.4885 0.0246 (  1125 PWs)   bands (ev):

   -48.0129 -47.9689 -22.1161 -22.0065 -21.9495 -21.8703 -21.7159 -21.7097
     5.5058  10.3093  12.3656  12.9357  13.5130  14.7281  16.0264  17.8855
    18.2953  18.3788  18.5594

     occupation numbers 
     1.0000   1.0000   1.0000   1.0000   1.0000   1.0000   1.0000   1.0000
     1.0000   1.0000   1.0000   1.0000   1.0000   1.0000   0.7447   0.0000
     0.0000   0.0000   0.0000

          k = 0.0000-0.4885 0.0739 (  1121 PWs)   bands (ev):

   -48.0116 -47.9702 -22.1257 -22.0238 -21.9278 -21.8663 -21.7200 -21.7043
     5.5152  10.2624  12.3423  12.9461  13.5636  14.8071  16.0759  17.9557
    18.2890  18.3394  18.3487

     occupation numbers 
     1.0000   1.0000   1.0000   1.0000   1.0000   1.0000   1.0000   1.0000
     1.0000   1.0000   1.0000   1.0000   1.0000   1.0000   0.5608   0.0000
     0.0000   0.0000   0.0000

          k = 0.0000-0.4885 0.1232 (  1117 PWs)   bands (ev):

   -48.0092 -47.9726 -22.1399 -22.0500 -21.8921 -21.8580 -21.7284 -21.6990
     5.5179  10.2405  12.2916  12.9867  13.7003  14.8898  16.0845  17.9405
    18.1043  18.1492  18.3448

     occupation numbers 
     1.0000   1.0000   1.0000   1.0000   1.0000   1.0000   1.0000   1.0000
     1.0000   1.0000   1.0000   1.0000   1.0000   1.0000   0.5284   0.0000
     0.0000   0.0000   0.0000

          k = 0.0000-0.4885 0.1724 (  1119 PWs)   bands (ev):

   -48.0056 -47.9761 -22.1511 -22.0800 -21.8517 -21.8461 -21.7406 -21.6973
     5.5132  10.2474  12.2341  13.0510  13.8944  14.9635  16.0371  17.6311
    17.9712  18.1207  18.3274

     occupation numbers 
     1.0000   1.0000   1.0000   1.0000   1.0000   1.0000   1.0000   1.0000
     1.0000   1.0000   1.0000   1.0000   1.0000   1.0000   0.7059   0.0000
     0.0000   0.0000   0.0000

          k = 0.0000-0.4885 0.2217 (  1118 PWs)   bands (ev):

   -48.0013 -47.9805 -22.1556 -22.1097 -21.8310 -21.8119 -21.7558 -21.7022
     5.5022  10.2816  12.1855  13.1272  14.1113  15.0060  15.9428  17.3059
    17.7841  18.1700  18.3084

     occupation numbers 
     1.0000   1.0000   1.0000   1.0000   1.0000   1.0000   1.0000   1.0000
     1.0000   1.0000   1.0000   1.0000   1.0000   1.0000   0.9863   0.0000
     0.0000   0.0000   0.0000

          k = 0.0000-0.4885 0.2709 (  1122 PWs)   bands (ev):

   -47.9964 -47.9854 -22.1523 -22.1353 -21.8138 -21.7761 -21.7732 -21.7152
     5.4876  10.3367  12.1532  13.1983  14.3088  14.9851  15.8430  17.0463
    17.6362  18.1821  18.3244

     occupation numbers 
     1.0000   1.0000   1.0000   1.0000   1.0000   1.0000   1.0000   1.0000
     1.0000   1.0000   1.0000   1.0000   1.0000   1.0000   1.0831   0.0000
     0.0000   0.0000   0.0000

     the Fermi energy is    16.1201 ev

!    total energy              =    -308.69752444 Ry
     estimated scf accuracy    <          1.7E-10 Ry
     smearing contrib. (-TS)   =       0.00098498 Ry
     internal energy E=F+TS    =    -308.69850943 Ry

     The total energy is F=E-TS. E is the sum of the following terms:
     one-electron contribution =     -93.71487218 Ry
     hartree contribution      =      61.80388265 Ry
     xc contribution           =     -43.89965067 Ry
     ewald contribution        =    -226.71183035 Ry
     one-center paw contrib.   =      -6.17603887 Ry
      -> PAW hartree energy AE =       8.13049101 Ry
      -> PAW hartree energy PS =      -8.12143405 Ry
      -> PAW xc energy AE      =     -10.35010747 Ry
      -> PAW xc energy PS      =       4.16501164 Ry
      -> total E_H with PAW    =      61.81293961 Ry
      -> total E_XC with PAW   =     -50.08474651 Ry

     convergence has been achieved in  12 iterations

     negative rho (up, down):  1.844E-03 0.000E+00

     Forces acting on atoms (cartesian axes, Ry/au):

     atom    1 type  2   force =     0.00000000    0.00000000    0.00596200
     atom    2 type  2   force =     0.00000000    0.00000000   -0.00596200
     atom    3 type  1   force =     0.00000000    0.00000000    0.00000000
     The non-local contrib.  to forces
     atom    1 type  2   force =    -0.00000000    0.00000000    0.06919098
     atom    2 type  2   force =     0.00000000    0.00000000   -0.06919098
     atom    3 type  1   force =     0.00000000    0.00000000    0.00000000
     The ionic contribution  to forces
     atom    1 type  2   force =     0.00000000   -0.00000000   -7.45609022
     atom    2 type  2   force =    -0.00000000    0.00000000    7.45609022
     atom    3 type  1   force =     0.00000000   -0.00000000    0.00000000
     The local contribution  to forces
     atom    1 type  2   force =    -0.00000000   -0.00000003    7.39204953
     atom    2 type  2   force =     0.00000000    0.00000003   -7.39204953
     atom    3 type  1   force =     0.00000000    0.00000000   -0.00000000
     The core correction contribution to forces
     atom    1 type  2   force =     0.00000000    0.00000000    0.00085242
     atom    2 type  2   force =     0.00000000   -0.00000000   -0.00085242
     atom    3 type  1   force =    -0.00000000    0.00000000   -0.00000000
     The Hubbard contrib.    to forces
     atom    1 type  2   force =     0.00000000    0.00000000    0.00000000
     atom    2 type  2   force =     0.00000000    0.00000000    0.00000000
     atom    3 type  1   force =     0.00000000    0.00000000    0.00000000
     The SCF correction term to forces
     atom    1 type  2   force =     0.00000000    0.00000000   -0.00004072
     atom    2 type  2   force =    -0.00000000   -0.00000000    0.00004072
     atom    3 type  1   force =     0.00000000    0.00000000   -0.00000000

     Total force =     0.008432     Total SCF correction =     0.000058

     Writing output data file ./out/v2c.save/

     init_run     :     31.12s CPU     34.96s WALL (       1 calls)
     electrons    :   1082.22s CPU   1120.82s WALL (       1 calls)
     forces       :     11.67s CPU     12.14s WALL (       1 calls)

     Called by init_run:
     wfcinit      :     29.58s CPU     30.32s WALL (       1 calls)
     wfcinit:atom :      0.42s CPU      0.43s WALL (     595 calls)
     wfcinit:wfcr :     26.97s CPU     27.67s WALL (     595 calls)
     potinit      :      0.17s CPU      0.31s WALL (       1 calls)
     hinit0       :      1.05s CPU      1.17s WALL (       1 calls)

     Called by electrons:
     c_bands      :    964.72s CPU    990.01s WALL (      12 calls)
     sum_band     :    113.77s CPU    118.34s WALL (      12 calls)
     v_of_rho     :      0.81s CPU      0.96s WALL (      13 calls)
     v_h          :      0.03s CPU      0.04s WALL (      13 calls)
     v_xc         :      0.84s CPU      0.98s WALL (      14 calls)
     newd         :      2.03s CPU      3.70s WALL (      13 calls)
     PAW_pot      :      1.00s CPU      1.00s WALL (      13 calls)
     mix_rho      :      0.11s CPU      0.19s WALL (      12 calls)

     Called by c_bands:
     init_us_2    :     13.28s CPU     13.82s WALL (   15470 calls)
     cegterg      :    919.94s CPU    942.58s WALL (    7140 calls)

     Called by sum_band:
     sum_band:wei :      0.25s CPU      0.26s WALL (      12 calls)
     sum_band:loo :    111.44s CPU    114.36s WALL (      12 calls)
     sum_band:buf :      0.56s CPU      0.55s WALL (    7140 calls)
     sum_band:ini :      5.73s CPU      6.31s WALL (    7140 calls)
     sum_band:cal :     27.23s CPU     28.63s WALL (    7140 calls)
     sum_band:bec :      0.38s CPU      0.49s WALL (    7140 calls)
     addusdens    :      1.98s CPU      3.63s WALL (      12 calls)
     addusd:skk   :      0.02s CPU      0.01s WALL (      24 calls)
     addusd:dgemm :      0.53s CPU      2.05s WALL (      24 calls)
     addusd:qvan2 :      1.23s CPU      1.22s WALL (      24 calls)

     Called by *egterg:
     cdiaghg      :     33.42s CPU     34.54s WALL (   34324 calls)
     cegterg:over :     74.77s CPU     75.41s WALL (   27184 calls)
     cegterg:upda :     48.11s CPU     49.92s WALL (   27184 calls)
     cegterg:last :    117.83s CPU    119.87s WALL (   15715 calls)
     h_psi        :    546.67s CPU    561.74s WALL (   34919 calls)
     s_psi        :     87.59s CPU     89.24s WALL (   34919 calls)
     g_psi        :      3.70s CPU      3.81s WALL (   27184 calls)

     Called by h_psi:
     h_psi:calbec :     79.89s CPU     82.01s WALL (   34919 calls)
     vloc_psi     :    376.27s CPU    387.48s WALL (   34919 calls)
     add_vuspsi   :     88.77s CPU     89.74s WALL (   34919 calls)

     General routines
     calbec       :    116.80s CPU    120.38s WALL (   44439 calls)
     fft          :      0.50s CPU      0.61s WALL (     178 calls)
     ffts         :      0.02s CPU      0.04s WALL (      25 calls)
     fftw         :    389.33s CPU    396.01s WALL (  881624 calls)
     interpolate  :      0.06s CPU      0.07s WALL (      13 calls)

     Parallel routines

     PAW routines
     PAW_pot      :      1.00s CPU      1.00s WALL (      13 calls)
     PAW_symme    :      0.00s CPU      0.00s WALL (      25 calls)

     PWSCF        :  18m45.77s CPU  19m30.23s WALL


   This run was terminated on:   3:51: 2   3Jun2024            

=------------------------------------------------------------------------------=
   JOB DONE.
=------------------------------------------------------------------------------=
